LAMMPS (8 Apr 2021)
# 2d SRD test: big + small particles

units		lj
atom_style	molecular

#atom_style	atomic
atom_modify	first cells	# treat big as first group atom list
dimension	3
boundary 	f f p		# x fix y fix z periodic
#processors 8 5 1 map zyx
# create big particles with sigma 1.0

lattice		sc 1 # reduced density: factor^2=1/0.4
Lattice spacing in x,y,z = 1.0000000 1.0000000 1.0000000
bond_style      wlc/pow
angle_style     rbc
dihedral_style  bend
read_data       in.cells
Reading data file ...
  orthogonal box = (0.0000000 0.0000000 0.0000000) to (30.000000 30.000000 40.000000)
  1 by 2 by 2 MPI processor grid
  reading atoms ...
  3210 atoms
  scanning bonds ...
  6 = max bonds/atom
  scanning angles ...
  4 = max angles/atom
  scanning dihedrals ...
  6 = max dihedrals/atom
  reading bonds ...
  9600 bonds
  reading angles ...
  6400 angles
  reading dihedrals ...
  9600 dihedrals
Finding 1-2 1-3 1-4 neighbors ...
  special bond factors lj:    0        0        0       
  special bond factors coul:  0        0        0       
     6 = max # of 1-2 neighbors
    30 = max # of 1-3 neighbors
   180 = max # of 1-4 neighbors
    36 = max # of special neighbors
  special bonds CPU = 0.004 seconds
  read_data CPU = 0.055 seconds

#pair_style lj/cut 3
#pair_coeff 1 1 0 2 3
#set		type 1 mass 5000.0
#mass            1 20

pair_style soft 1.0
pair_coeff * * 1e-8 1.5
#pair_coeff 1 2 2e-8 1.5
#group big type 1
group           cells type 1
3210 atoms in group cells
#group  wall type 2
#velocity	cells create 4e-7 87287 loop geom # set/change group (big) velocity at temperature=1.44,


reset_timestep	0 # reset timestep to 0

#neighbor	0.0 bin # set atom neighbor list for each atom
neighbor	0.5 bin	    # create neighbor list: set skin=0.3, using bin style
neigh_modify	delay 0 every 1 check yes exclude molecule/intra cells
#neigh_modify    exclude molecule plt
comm_modify cutoff 5
# by (atom_modify first big)

# no pairwise interactions with small particles

# use fix SRD to push small particles out from inside big ones

timestep	100

#fix		1 all nve
fix 2 cells fcm 1
#fix 3 wall move linear 0 0 0
#fix 4 cells viscous 0.1
#     nevery LBtype dynamic_vis rho
#fix 2 cells lb/fluid 1 1 0.1667 1 dx 1 dm 1 printfluid 100 zwall_velocity 0 1e-5
#fix 2 cells lbm 1 1 0.1667 1 dx 1 dm 1 printfluid 100 zwall_velocity 0 1e-5
#fix 2 cells lbm 1 1 0.1667 1 dx 1 dm 1 printfluid 100 zlo velocity 0 0 0 zhi velocity 0 1e-5 0
#fix 2 cells lbm 1 1 0.1667 1 dx 1 dm 1 printfluid 100 periodic 0 0 0 xlo wall xhi wall ylo wall yhi wall zlo velocity 0 0 0 zhi velocity 0 1e-5 0
#fix 3 cells lb/viscous
#fix             4 big move rotate 15 15 0 0 0 1 100
#fix             4 btm freeze
#fix             4 big setforce 0.0 0.0 0.0

#thermo		100
#run             1000000

#compute		tbig cells temp # computing temperature (temp) for atoms (big), name it as (tbig)
#variable	pebig equal pe*atoms/count(cells) # varialbe (pebig)= pe*atoms/count(big)
#variable	ebig equal etotal*atoms/count(cells)

#thermo_modify	temp tbig
#thermo_modify   lost ignore
# reset (temp) defined in thermo_style as (tbig)
#thermo		100
#run             1000000
# output thermodynamic infor every 100 timesteps
dump            1 cells xyz 10 dump.rbc.xyz
#dump           2 all custom 500 dump.rbc.force id fx fy fz
#dump           3 all custom 500 dump.rbc.vel id vx vy vz
run	      10
Neighbor list info ...
  update every 1 steps, delay 0 steps, check yes
  max neighbors/atom: 2000, page size: 100000
  master list distance cutoff = 2
  ghost atom cutoff = 5
  binsize = 1, bins = 30 30 40
  1 neighbor lists, perpetual/occasional/extra = 1 0 0
  (1) pair soft, perpetual
      attributes: half, newton on
      pair build: half/bin/newton
      stencil: half/bin/3d
      bin: standard
Per MPI rank memory allocation (min/avg/max) = 13.57 | 13.83 | 14.09 Mbytes
Step Temp E_pair E_mol TotEng Press 
       0            0            0 9.0794895e-05 9.0794895e-05 2.2648659e-10 
      10            0            0 9.0794895e-05 9.0794895e-05 2.2648659e-10 
Loop time of 0.00552967 on 4 procs for 10 steps with 3210 atoms

Performance: 15624788075.249 tau/day, 1808.425 timesteps/s
0.0% CPU use with 4 MPI tasks x no OpenMP threads

MPI task timing breakdown:
Section |  min time  |  avg time  |  max time  |%varavg| %total
---------------------------------------------------------------
Pair    | 2.43e-05   | 4.0425e-05 | 5.42e-05   |   0.0 |  0.73
Bond    | 0.0016855  | 0.0027322  | 0.0036926  |   1.8 | 49.41
Neigh   | 0          | 0          | 0          |   0.0 |  0.00
Comm    | 0.0006029  | 0.0015363  | 0.0025618  |   2.3 | 27.78
Output  | 0.0009932  | 0.0010016  | 0.0010172  |   0.0 | 18.11
Modify  | 3.03e-05   | 4.4425e-05 | 5.77e-05   |   0.0 |  0.80
Other   |            | 0.0001747  |            |       |  3.16

Nlocal:        802.500 ave        1286 max         243 min
Histogram: 1 1 0 0 0 0 0 0 0 2
Nghost:        1765.50 ave        2325 max        1130 min
Histogram: 1 0 1 0 0 0 0 0 1 1
Neighs:        1.00000 ave           3 max           0 min
Histogram: 2 0 0 1 0 0 0 0 0 1

Total # of neighbors = 4
Ave neighs/atom = 0.0012461059
Ave special neighs/atom = 35.420561
Neighbor list builds = 0
Dangerous builds = 0
run 1 pre no post no
Step Temp E_pair E_mol TotEng Press 
      10            0            0 9.0794895e-05 9.0794895e-05 2.2648659e-10 
      11            0            0 9.0794895e-05 9.0794895e-05 2.2648659e-10 
Loop time of 0.0005706 on 4 procs for 1 steps with 3210 atoms

run 1 pre no post no
Step Temp E_pair E_mol TotEng Press 
      11 3.4001139e-10            0 9.0794895e-05 9.0795405e-05 2.5679483e-10 
      12 3.4001139e-10            0 9.079492e-05 9.079543e-05 2.0732163e-10 
Loop time of 0.000557575 on 4 procs for 1 steps with 3210 atoms

run 1 pre no post no
Step Temp E_pair E_mol TotEng Press 
      12 3.3996569e-10            0 9.079492e-05 9.079543e-05 2.0731756e-10 
      13 3.3996569e-10            0 9.0794992e-05 9.0795502e-05 1.2700971e-10 
Loop time of 0.0005764 on 4 procs for 1 steps with 3210 atoms

run 1 pre no post no
Step Temp E_pair E_mol TotEng Press 
      13 3.3984676e-10            0 9.0794992e-05 9.0795502e-05 1.2699911e-10 
      14 3.3984676e-10            0 9.0795104e-05 9.0795614e-05 2.7844839e-11 
Loop time of 0.00055695 on 4 procs for 1 steps with 3210 atoms

run 1 pre no post no
Step Temp E_pair E_mol TotEng Press 
      14 3.396678e-10            0 9.0795104e-05 9.0795614e-05 2.7828888e-11 
      15 3.396678e-10            0 9.0795253e-05 9.0795762e-05 -7.4854005e-11 
Loop time of 0.000557525 on 4 procs for 1 steps with 3210 atoms

run 1 pre no post no
Step Temp E_pair E_mol TotEng Press 
      15 3.3944509e-10            0 9.0795253e-05 9.0795762e-05 -7.4873857e-11 
      16 3.3944509e-10            0 9.0795434e-05 9.0795943e-05 -1.6665572e-10 
Loop time of 0.000570875 on 4 procs for 1 steps with 3210 atoms

run 1 pre no post no
Step Temp E_pair E_mol TotEng Press 
      16 3.3920479e-10            0 9.0795434e-05 9.0795943e-05 -1.6667714e-10 
      17 3.3920479e-10            0 9.0795644e-05 9.0796153e-05 -2.3761147e-10 
Loop time of 0.000580375 on 4 procs for 1 steps with 3210 atoms

run 1 pre no post no
Step Temp E_pair E_mol TotEng Press 
      17 3.3895936e-10            0 9.0795644e-05 9.0796152e-05 -2.3763335e-10 
      18 3.3895936e-10            0 9.0795878e-05 9.0796387e-05 -2.8599923e-10 
Loop time of 0.0005534 on 4 procs for 1 steps with 3210 atoms

run 1 pre no post no
Step Temp E_pair E_mol TotEng Press 
      18 3.3871875e-10            0 9.0795878e-05 9.0796386e-05 -2.8602068e-10 
      19 3.3871875e-10            0 9.0796133e-05 9.0796641e-05 -3.194605e-10 
Loop time of 0.000553325 on 4 procs for 1 steps with 3210 atoms

run 1 pre no post no
Step Temp E_pair E_mol TotEng Press 
      19 3.384835e-10            0 9.0796133e-05 9.0796641e-05 -3.1948147e-10 
      20 3.384835e-10            0 9.0796405e-05 9.0796913e-05 -3.5320769e-10 
Loop time of 0.00176187 on 4 procs for 1 steps with 3210 atoms

run 1 pre no post no
Step Temp E_pair E_mol TotEng Press 
      20 3.3825559e-10            0 9.0796405e-05 9.0796912e-05 -3.5322801e-10 
      21 3.3825559e-10            0 9.079669e-05 9.0797197e-05 -4.059631e-10 
Loop time of 0.000563675 on 4 procs for 1 steps with 3210 atoms

run 1 pre no post no
Step Temp E_pair E_mol TotEng Press 
      21 3.3803386e-10            0 9.079669e-05 9.0797196e-05 -4.0598286e-10 
      22 3.3803386e-10            0 9.0796984e-05 9.0797491e-05 -4.9519019e-10 
Loop time of 0.0006371 on 4 procs for 1 steps with 3210 atoms

run 1 pre no post no
Step Temp E_pair E_mol TotEng Press 
      22 3.3781991e-10            0 9.0796984e-05 9.079749e-05 -4.9520926e-10 
      23 3.3781991e-10            0 9.0797284e-05 9.0797791e-05 -6.3338897e-10 
Loop time of 0.000639725 on 4 procs for 1 steps with 3210 atoms

run 1 pre no post no
Step Temp E_pair E_mol TotEng Press 
      23 3.3761322e-10            0 9.0797284e-05 9.0797791e-05 -6.3340739e-10 
      24 3.3761322e-10            0 9.0797589e-05 9.0798095e-05 -8.2664404e-10 
Loop time of 0.000606225 on 4 procs for 1 steps with 3210 atoms

run 1 pre no post no
Step Temp E_pair E_mol TotEng Press 
      24 3.3741455e-10            0 9.0797589e-05 9.0798095e-05 -8.2666174e-10 
      25 3.3741455e-10            0 9.0797896e-05 9.0798402e-05 -1.0749431e-09 
Loop time of 0.000613525 on 4 procs for 1 steps with 3210 atoms

run 1 pre no post no
Step Temp E_pair E_mol TotEng Press 
      25 3.3722226e-10            0 9.0797896e-05 9.0798401e-05 -1.0749602e-09 
      26 3.3722226e-10            0 9.0798202e-05 9.0798707e-05 -1.37398e-09 
Loop time of 0.0005609 on 4 procs for 1 steps with 3210 atoms

run 1 pre no post no
Step Temp E_pair E_mol TotEng Press 
      26 3.3703517e-10            0 9.0798202e-05 9.0798707e-05 -1.3739967e-09 
      27 3.3703517e-10            0 9.0798506e-05 9.0799011e-05 -1.7168924e-09 
Loop time of 0.000602825 on 4 procs for 1 steps with 3210 atoms

run 1 pre no post no
Step Temp E_pair E_mol TotEng Press 
      27 3.3685022e-10            0 9.0798506e-05 9.0799011e-05 -1.7169088e-09 
      28 3.3685022e-10            0 9.0798806e-05 9.0799311e-05 -2.0960264e-09 
Loop time of 0.0005779 on 4 procs for 1 steps with 3210 atoms

run 1 pre no post no
Step Temp E_pair E_mol TotEng Press 
      28  3.36665e-10            0 9.0798806e-05 9.0799311e-05 -2.0960429e-09 
      29  3.36665e-10            0 9.0799101e-05 9.0799606e-05 -2.5036913e-09 
Loop time of 0.000763625 on 4 procs for 1 steps with 3210 atoms

run 1 pre no post no
Step Temp E_pair E_mol TotEng Press 
      29 3.3647605e-10            0 9.0799101e-05 9.0799606e-05 -2.5037081e-09 
      30 3.3647605e-10            0 9.0799391e-05 9.0799895e-05 -2.9328013e-09 
Loop time of 0.0016421 on 4 procs for 1 steps with 3210 atoms

run 1 pre no post no
Step Temp E_pair E_mol TotEng Press 
      30 3.3628092e-10            0 9.0799391e-05 9.0799895e-05 -2.9328187e-09 
      31 3.3628092e-10            0 9.0799673e-05 9.0800178e-05 -3.376754e-09 
Loop time of 0.00105838 on 4 procs for 1 steps with 3210 atoms

run 1 pre no post no
Step Temp E_pair E_mol TotEng Press 
      31 3.360768e-10            0 9.0799673e-05 9.0800177e-05 -3.3767721e-09 
      32 3.360768e-10            0 9.0799948e-05 9.0800452e-05 -3.8296149e-09 
Loop time of 0.00055625 on 4 procs for 1 steps with 3210 atoms

run 1 pre no post no
Step Temp E_pair E_mol TotEng Press 
      32 3.3586201e-10            0 9.0799948e-05 9.0800452e-05 -3.8296341e-09 
      33 3.3586201e-10            0 9.0800215e-05 9.0800719e-05 -4.2857985e-09 
Loop time of 0.0005593 on 4 procs for 1 steps with 3210 atoms

run 1 pre no post no
Step Temp E_pair E_mol TotEng Press 
      33 3.3563479e-10            0 9.0800215e-05 9.0800719e-05 -4.2858188e-09 
      34 3.3563479e-10            0 9.0800474e-05 9.0800977e-05 -4.7402928e-09 
Loop time of 0.00062925 on 4 procs for 1 steps with 3210 atoms

run 1 pre no post no
Step Temp E_pair E_mol TotEng Press 
      34 3.3539445e-10            0 9.0800474e-05 9.0800977e-05 -4.7403142e-09 
      35 3.3539445e-10            0 9.0800724e-05 9.0801227e-05 -5.1884822e-09 
Loop time of 0.00207923 on 4 procs for 1 steps with 3210 atoms

run 1 pre no post no
Step Temp E_pair E_mol TotEng Press 
      35 3.3519449e-10            0 9.0800724e-05 9.0801227e-05  -5.1885e-09 
      36 3.3519449e-10            0 9.0800968e-05 9.080147e-05 -4.7006454e-09 
Loop time of 0.00059 on 4 procs for 1 steps with 3210 atoms

run 1 pre no post no
Step Temp E_pair E_mol TotEng Press 
      36 3.3491875e-10            0 9.0800968e-05 9.080147e-05 -4.70067e-09 
      37 3.3491875e-10            0 9.0801203e-05 9.0801706e-05 -3.9253474e-09 
Loop time of 0.000600625 on 4 procs for 1 steps with 3210 atoms

run 1 pre no post no
Step Temp E_pair E_mol TotEng Press 
      37 3.3457927e-10            0 9.0801203e-05 9.0801705e-05 -3.9253777e-09 
      38 3.3457927e-10            0 9.080143e-05 9.0801932e-05 -3.1194818e-09 
Loop time of 0.000802675 on 4 procs for 1 steps with 3210 atoms

run 1 pre no post no
Step Temp E_pair E_mol TotEng Press 
      38 3.341923e-10            0 9.080143e-05 9.0801931e-05 -3.1195163e-09 
      39 3.341923e-10            0 9.0801649e-05 9.080215e-05 -2.4487728e-09 
Loop time of 0.00060885 on 4 procs for 1 steps with 3210 atoms

run 1 pre no post no
Step Temp E_pair E_mol TotEng Press 
      39 3.3378039e-10            0 9.0801649e-05 9.0802149e-05 -2.4488095e-09 
      40 3.3378039e-10            0 9.0801859e-05 9.0802359e-05 -1.9744872e-09 
Loop time of 0.00235387 on 4 procs for 1 steps with 3210 atoms

run 1 pre no post no
Step Temp E_pair E_mol TotEng Press 
      40 3.333651e-10            0 9.0801859e-05 9.0802358e-05 -1.9745242e-09 
      41 3.333651e-10            0 9.080206e-05 9.080256e-05 -1.6753905e-09 
Loop time of 0.0005783 on 4 procs for 1 steps with 3210 atoms

run 1 pre no post no
Step Temp E_pair E_mol TotEng Press 
      41 3.3295866e-10            0 9.080206e-05 9.0802559e-05 -1.6754268e-09 
      42 3.3295866e-10            0 9.0802253e-05 9.0802753e-05 -1.4875868e-09 
Loop time of 0.0008221 on 4 procs for 1 steps with 3210 atoms

run 1 pre no post no
Step Temp E_pair E_mol TotEng Press 
      42 3.3256615e-10            0 9.0802253e-05 9.0802752e-05 -1.4876218e-09 
      43 3.3256615e-10            0 9.0802439e-05 9.0802938e-05 -1.3403568e-09 
Loop time of 0.000833125 on 4 procs for 1 steps with 3210 atoms

run 1 pre no post no
Step Temp E_pair E_mol TotEng Press 
      43 3.3218424e-10            0 9.0802439e-05 9.0802937e-05 -1.3403908e-09 
      44 3.3218424e-10            0 9.0802617e-05 9.0803115e-05 -1.1821423e-09 
Loop time of 0.000725575 on 4 procs for 1 steps with 3210 atoms

run 1 pre no post no
Step Temp E_pair E_mol TotEng Press 
      44 3.3180696e-10            0 9.0802617e-05 9.0803115e-05 -1.182176e-09 
      45 3.3180696e-10            0 9.0802788e-05 9.0803286e-05 -9.9000427e-10 
Loop time of 0.000648 on 4 procs for 1 steps with 3210 atoms

run 1 pre no post no
Step Temp E_pair E_mol TotEng Press 
      45 3.3142662e-10            0 9.0802788e-05 9.0803285e-05 -9.9003818e-10 
      46 3.3142662e-10            0 9.0802952e-05 9.0803449e-05 -7.6819028e-10 
Loop time of 0.000599575 on 4 procs for 1 steps with 3210 atoms

run 1 pre no post no
Step Temp E_pair E_mol TotEng Press 
      46 3.3103807e-10            0 9.0802952e-05 9.0803449e-05 -7.6822491e-10 
      47 3.3103807e-10            0 9.080311e-05 9.0803606e-05 -5.3806382e-10 
Loop time of 0.0009463 on 4 procs for 1 steps with 3210 atoms

run 1 pre no post no
Step Temp E_pair E_mol TotEng Press 
      47 3.3063826e-10            0 9.080311e-05 9.0803606e-05 -5.3809946e-10 
      48 3.3063826e-10            0 9.0803261e-05 9.0803757e-05 -3.2732633e-10 
Loop time of 0.000653925 on 4 procs for 1 steps with 3210 atoms

run 1 pre no post no
Step Temp E_pair E_mol TotEng Press 
      48 3.3022772e-10            0 9.0803261e-05 9.0803757e-05 -3.2736293e-10 
      49 3.3022772e-10            0 9.0803407e-05 9.0803902e-05 -1.5999446e-10 
Loop time of 0.0007666 on 4 procs for 1 steps with 3210 atoms

run 1 pre no post no
Step Temp E_pair E_mol TotEng Press 
      49 3.2980882e-10            0 9.0803407e-05 9.0803901e-05 -1.600318e-10 
      50 3.2980882e-10            0 9.0803546e-05 9.0804041e-05 -5.1348632e-11 
Loop time of 0.00242782 on 4 procs for 1 steps with 3210 atoms

run 1 pre no post no
Step Temp E_pair E_mol TotEng Press 
      50 3.2938568e-10            0 9.0803546e-05 9.080404e-05 -5.1386349e-11 
      51 3.2938568e-10            0 9.080368e-05 9.0804174e-05 -5.9176702e-12 
Loop time of 0.000652225 on 4 procs for 1 steps with 3210 atoms

run 1 pre no post no
Step Temp E_pair E_mol TotEng Press 
      51 3.2896247e-10            0 9.080368e-05 9.0804174e-05 -5.955395e-12 
      52 3.2896247e-10            0 9.0803809e-05 9.0804302e-05 -1.9539841e-11 
Loop time of 0.000757375 on 4 procs for 1 steps with 3210 atoms

run 1 pre no post no
Step Temp E_pair E_mol TotEng Press 
      52 3.285432e-10            0 9.0803809e-05 9.0804301e-05 -1.9577215e-11 
      53 3.285432e-10            0 9.0803932e-05 9.0804425e-05 -8.2154259e-11 
Loop time of 0.00073285 on 4 procs for 1 steps with 3210 atoms

run 1 pre no post no
Step Temp E_pair E_mol TotEng Press 
      53 3.281308e-10            0 9.0803932e-05 9.0804424e-05 -8.2191021e-11 
      54 3.281308e-10            0 9.080405e-05 9.0804542e-05 -1.8174408e-10 
Loop time of 0.00065815 on 4 procs for 1 steps with 3210 atoms

run 1 pre no post no
Step Temp E_pair E_mol TotEng Press 
      54 3.277274e-10            0 9.080405e-05 9.0804542e-05 -1.8178003e-10 
      55 3.277274e-10            0 9.0804164e-05 9.0804656e-05 -3.0674894e-10 
Loop time of 0.000933975 on 4 procs for 1 steps with 3210 atoms

run 1 pre no post no
Step Temp E_pair E_mol TotEng Press 
      55 3.273341e-10            0 9.0804164e-05 9.0804655e-05 -3.06784e-10 
      56 3.273341e-10            0 9.0804275e-05 9.0804765e-05 -4.4811893e-10 
Loop time of 0.0007277 on 4 procs for 1 steps with 3210 atoms

run 1 pre no post no
Step Temp E_pair E_mol TotEng Press 
      56 3.2695145e-10            0 9.0804275e-05 9.0804765e-05 -4.4815304e-10 
      57 3.2695145e-10            0 9.0804381e-05 9.0804871e-05 -5.9943844e-10 
Loop time of 0.000798 on 4 procs for 1 steps with 3210 atoms

run 1 pre no post no
Step Temp E_pair E_mol TotEng Press 
      57 3.2657953e-10            0 9.0804381e-05 9.0804871e-05 -5.9947159e-10 
      58 3.2657953e-10            0 9.0804485e-05 9.0804974e-05 -7.5694839e-10 
Loop time of 0.00214385 on 4 procs for 1 steps with 3210 atoms

run 1 pre no post no
Step Temp E_pair E_mol TotEng Press 
      58 3.2729442e-10            0 9.0804485e-05 9.0804975e-05 -7.5688467e-10 
      59 3.2729442e-10            0 9.0804587e-05 9.0805078e-05 -2.3223217e-10 
Loop time of 0.000788025 on 4 procs for 1 steps with 3210 atoms

run 1 pre no post no
Step Temp E_pair E_mol TotEng Press 
      59 3.273124e-10            0 9.0804587e-05 9.0805078e-05 -2.3223056e-10 
      60 3.273124e-10            0 9.0804689e-05 9.080518e-05 5.3423382e-10 
Loop time of 0.0020431 on 4 procs for 1 steps with 3210 atoms

run 1 pre no post no
Step Temp E_pair E_mol TotEng Press 
      60 3.2717557e-10            0 9.0804689e-05 9.0805179e-05 5.3422162e-10 
      61 3.2717557e-10            0 9.080479e-05 9.0805281e-05 1.3834133e-09 
Loop time of 0.000611625 on 4 procs for 1 steps with 3210 atoms

run 1 pre no post no
Step Temp E_pair E_mol TotEng Press 
      61 3.2699737e-10            0 9.080479e-05 9.080528e-05 1.3833974e-09 
      62 3.2699737e-10            0 9.0804891e-05 9.0805381e-05 2.1863261e-09 
Loop time of 0.00076055 on 4 procs for 1 steps with 3210 atoms

run 1 pre no post no
Step Temp E_pair E_mol TotEng Press 
      62 3.2681066e-10            0 9.0804891e-05 9.0805381e-05 2.1863095e-09 
      63 3.2681066e-10            0 9.080499e-05 9.080548e-05 2.8645545e-09 
Loop time of 0.0006134 on 4 procs for 1 steps with 3210 atoms

run 1 pre no post no
Step Temp E_pair E_mol TotEng Press 
      63 3.2664981e-10            0 9.080499e-05 9.080548e-05 2.8645402e-09 
      64 3.2664981e-10            0 9.0805088e-05 9.0805578e-05 3.3919692e-09 
Loop time of 0.0006173 on 4 procs for 1 steps with 3210 atoms

run 1 pre no post no
Step Temp E_pair E_mol TotEng Press 
      64 3.2650532e-10            0 9.0805088e-05 9.0805578e-05 3.3919563e-09 
      65 3.2650532e-10            0 9.0805185e-05 9.0805675e-05 3.7759768e-09 
Loop time of 0.00104825 on 4 procs for 1 steps with 3210 atoms

run 1 pre no post no
Step Temp E_pair E_mol TotEng Press 
      65 3.2637588e-10            0 9.0805185e-05 9.0805675e-05 3.7759653e-09 
      66 3.2637588e-10            0 9.0805281e-05 9.0805771e-05 4.0523201e-09 
Loop time of 0.000757625 on 4 procs for 1 steps with 3210 atoms

run 1 pre no post no
Step Temp E_pair E_mol TotEng Press 
      66 3.2624422e-10            0 9.0805281e-05 9.080577e-05 4.0523083e-09 
      67 3.2624422e-10            0 9.0805377e-05 9.0805866e-05 4.2526778e-09 
Loop time of 0.000645175 on 4 procs for 1 steps with 3210 atoms

run 1 pre no post no
Step Temp E_pair E_mol TotEng Press 
      67 3.2610324e-10            0 9.0805377e-05 9.0805866e-05 4.2526653e-09 
      68 3.2610324e-10            0 9.0805471e-05 9.080596e-05 4.4068236e-09 
Loop time of 0.000684825 on 4 procs for 1 steps with 3210 atoms

run 1 pre no post no
Step Temp E_pair E_mol TotEng Press 
      68 3.2594273e-10            0 9.0805471e-05 9.080596e-05 4.4068093e-09 
      69 3.2594273e-10            0 9.0805566e-05 9.0806055e-05 4.5231301e-09 
Loop time of 0.0007332 on 4 procs for 1 steps with 3210 atoms

run 1 pre no post no
Step Temp E_pair E_mol TotEng Press 
      69 3.2576047e-10            0 9.0805566e-05 9.0806054e-05 4.5231139e-09 
      70 3.2576047e-10            0 9.080566e-05 9.0806148e-05 4.6045016e-09 
Loop time of 0.00183295 on 4 procs for 1 steps with 3210 atoms

run 1 pre no post no
Step Temp E_pair E_mol TotEng Press 
      70 3.2555579e-10            0 9.080566e-05 9.0806148e-05 4.6044833e-09 
      71 3.2555579e-10            0 9.0805753e-05 9.0806241e-05 4.6396243e-09 
Loop time of 0.0006263 on 4 procs for 1 steps with 3210 atoms

run 1 pre no post no
Step Temp E_pair E_mol TotEng Press 
      71 3.2533197e-10            0 9.0805753e-05 9.0806241e-05 4.6396044e-09 
      72 3.2533197e-10            0 9.0805846e-05 9.0806333e-05 4.6218569e-09 
Loop time of 0.00164597 on 4 procs for 1 steps with 3210 atoms

run 1 pre no post no
Step Temp E_pair E_mol TotEng Press 
      72 3.250945e-10            0 9.0805846e-05 9.0806333e-05 4.6218358e-09 
      73 3.250945e-10            0 9.0805937e-05 9.0806425e-05 4.5411892e-09 
Loop time of 0.00108515 on 4 procs for 1 steps with 3210 atoms

run 1 pre no post no
Step Temp E_pair E_mol TotEng Press 
      73 3.2484849e-10            0 9.0805937e-05 9.0806424e-05 4.5411673e-09 
      74 3.2484849e-10            0 9.0806028e-05 9.0806515e-05 4.3984868e-09 
Loop time of 0.000705725 on 4 procs for 1 steps with 3210 atoms

run 1 pre no post no
Step Temp E_pair E_mol TotEng Press 
      74 3.2460076e-10            0 9.0806028e-05 9.0806515e-05 4.3984648e-09 
      75 3.2460076e-10            0 9.0806118e-05 9.0806605e-05 4.1946342e-09 
Loop time of 0.0010065 on 4 procs for 1 steps with 3210 atoms

run 1 pre no post no
Step Temp E_pair E_mol TotEng Press 
      75 3.2435474e-10            0 9.0806118e-05 9.0806604e-05 4.1946123e-09 
      76 3.2435474e-10            0 9.0806207e-05 9.0806693e-05 3.9399343e-09 
Loop time of 0.000666875 on 4 procs for 1 steps with 3210 atoms

run 1 pre no post no
Step Temp E_pair E_mol TotEng Press 
      76 3.2411565e-10            0 9.0806207e-05 9.0806693e-05 3.939913e-09 
      77 3.2411565e-10            0 9.0806295e-05 9.0806781e-05 3.6422587e-09 
Loop time of 0.00060255 on 4 procs for 1 steps with 3210 atoms

run 1 pre no post no
Step Temp E_pair E_mol TotEng Press 
      77 3.2388402e-10            0 9.0806295e-05 9.0806781e-05 3.642238e-09 
      78 3.2388402e-10            0 9.0806383e-05 9.0806869e-05 3.3144816e-09 
Loop time of 0.000682825 on 4 procs for 1 steps with 3210 atoms

run 1 pre no post no
Step Temp E_pair E_mol TotEng Press 
      78 3.2366295e-10            0 9.0806383e-05 9.0806869e-05 3.3144619e-09 
      79 3.2366295e-10            0 9.0806471e-05 9.0806956e-05 2.9640943e-09 
Loop time of 0.0006247 on 4 procs for 1 steps with 3210 atoms

run 1 pre no post no
Step Temp E_pair E_mol TotEng Press 
      79 3.234507e-10            0 9.0806471e-05 9.0806956e-05 2.9640754e-09 
      80 3.234507e-10            0 9.0806558e-05 9.0807043e-05 2.600677e-09 
Loop time of 0.00217002 on 4 procs for 1 steps with 3210 atoms

run 1 pre no post no
Step Temp E_pair E_mol TotEng Press 
      80 3.2324906e-10            0 9.0806558e-05 9.0807043e-05 2.600659e-09 
      81 3.2324906e-10            0 9.0806645e-05 9.080713e-05 2.227816e-09 
Loop time of 0.00085405 on 4 procs for 1 steps with 3210 atoms

run 1 pre no post no
Step Temp E_pair E_mol TotEng Press 
      81 3.2305512e-10            0 9.0806645e-05 9.080713e-05 2.2277987e-09 
      82 3.2305512e-10            0 9.0806733e-05 9.0807217e-05 1.8507225e-09 
Loop time of 0.00259012 on 4 procs for 1 steps with 3210 atoms

run 1 pre no post no
Step Temp E_pair E_mol TotEng Press 
      82 3.2357934e-10            0 9.0806733e-05 9.0807218e-05 1.8507693e-09 
      83 3.2357934e-10            0 9.0806818e-05 9.0807303e-05 1.5138196e-09 
Loop time of 0.000709125 on 4 procs for 1 steps with 3210 atoms

run 1 pre no post no
Step Temp E_pair E_mol TotEng Press 
      83 3.2362318e-10            0 9.0806818e-05 9.0807303e-05 1.5138236e-09 
      84 3.2362318e-10            0 9.0806903e-05 9.0807389e-05 1.2184669e-09 
Loop time of 0.0006497 on 4 procs for 1 steps with 3210 atoms

run 1 pre no post no
Step Temp E_pair E_mol TotEng Press 
      84 3.2358319e-10            0 9.0806903e-05 9.0807389e-05 1.2184634e-09 
      85 3.2358319e-10            0 9.0806989e-05 9.0807474e-05 9.6405664e-10 
Loop time of 0.000618725 on 4 procs for 1 steps with 3210 atoms

run 1 pre no post no
Step Temp E_pair E_mol TotEng Press 
      85 3.2350148e-10            0 9.0806989e-05 9.0807474e-05 9.6404935e-10 
      86 3.2350148e-10            0 9.0807075e-05 9.080756e-05 7.2195254e-10 
Loop time of 0.00064905 on 4 procs for 1 steps with 3210 atoms

run 1 pre no post no
Step Temp E_pair E_mol TotEng Press 
      86 3.2342835e-10            0 9.0807075e-05 9.080756e-05 7.2194602e-10 
      87 3.2342835e-10            0 9.0807161e-05 9.0807646e-05 4.6983361e-10 
Loop time of 0.0007255 on 4 procs for 1 steps with 3210 atoms

run 1 pre no post no
Step Temp E_pair E_mol TotEng Press 
      87 3.233596e-10            0 9.0807161e-05 9.0807646e-05 4.6982749e-10 
      88 3.233596e-10            0 9.0807248e-05 9.0807733e-05 1.890548e-10 
Loop time of 0.000603475 on 4 procs for 1 steps with 3210 atoms

run 1 pre no post no
Step Temp E_pair E_mol TotEng Press 
      88 3.233055e-10            0 9.0807248e-05 9.0807733e-05 1.8904998e-10 
      89 3.233055e-10            0 9.0807335e-05 9.080782e-05 -1.350812e-10 
Loop time of 0.0006689 on 4 procs for 1 steps with 3210 atoms

run 1 pre no post no
Step Temp E_pair E_mol TotEng Press 
      89 3.2324236e-10            0 9.0807335e-05 9.080782e-05 -1.3508683e-10 
      90 3.2324236e-10            0 9.0807424e-05 9.0807908e-05 -5.0759172e-10 
Loop time of 0.00227148 on 4 procs for 1 steps with 3210 atoms

run 1 pre no post no
Step Temp E_pair E_mol TotEng Press 
      90 3.2317206e-10            0 9.0807424e-05 9.0807908e-05 -5.0759798e-10 
      91 3.2317206e-10            0 9.0807512e-05 9.0807997e-05 -9.3219311e-10 
Loop time of 0.000705425 on 4 procs for 1 steps with 3210 atoms

run 1 pre no post no
Step Temp E_pair E_mol TotEng Press 
      91 3.2307476e-10            0 9.0807512e-05 9.0807997e-05 -9.3220179e-10 
      92 3.2307476e-10            0 9.0807601e-05 9.0808086e-05   -1.404e-09 
Loop time of 0.0006006 on 4 procs for 1 steps with 3210 atoms

run 1 pre no post no
Step Temp E_pair E_mol TotEng Press 
      92 3.2295759e-10            0 9.0807601e-05 9.0808086e-05 -1.4040104e-09 
      93 3.2295759e-10            0 9.0807691e-05 9.0808175e-05 -1.920334e-09 
Loop time of 0.000856525 on 4 procs for 1 steps with 3210 atoms

run 1 pre no post no
Step Temp E_pair E_mol TotEng Press 
      93 3.228092e-10            0 9.0807691e-05 9.0808175e-05 -1.9203472e-09 
      94 3.228092e-10            0 9.080778e-05 9.0808264e-05 -2.4732404e-09 
Loop time of 0.0005966 on 4 procs for 1 steps with 3210 atoms

run 1 pre no post no
Step Temp E_pair E_mol TotEng Press 
      94 3.2264176e-10            0 9.080778e-05 9.0808264e-05 -2.4732553e-09 
      95 3.2264176e-10            0 9.080787e-05 9.0808354e-05 -3.0592752e-09 
Loop time of 0.000590975 on 4 procs for 1 steps with 3210 atoms

run 1 pre no post no
Step Temp E_pair E_mol TotEng Press 
      95 3.224491e-10            0 9.080787e-05 9.0808353e-05 -3.0592923e-09 
      96 3.224491e-10            0 9.080796e-05 9.0808443e-05 -3.671448e-09 
Loop time of 0.00059575 on 4 procs for 1 steps with 3210 atoms

run 1 pre no post no
Step Temp E_pair E_mol TotEng Press 
      96 3.2224466e-10            0 9.080796e-05 9.0808443e-05 -3.6714662e-09 
      97 3.2224466e-10            0 9.0808049e-05 9.0808532e-05 -4.3071602e-09 
Loop time of 0.000612375 on 4 procs for 1 steps with 3210 atoms

run 1 pre no post no
Step Temp E_pair E_mol TotEng Press 
      97 3.220237e-10            0 9.0808049e-05 9.0808532e-05 -4.3071799e-09 
      98 3.220237e-10            0 9.0808139e-05 9.0808622e-05 -4.960367e-09 
Loop time of 0.00061475 on 4 procs for 1 steps with 3210 atoms

run 1 pre no post no
Step Temp E_pair E_mol TotEng Press 
      98 3.2179836e-10            0 9.0808139e-05 9.0808621e-05 -4.9603871e-09 
      99 3.2179836e-10            0 9.0808229e-05 9.0808711e-05 -5.6285402e-09 
Loop time of 0.000591025 on 4 procs for 1 steps with 3210 atoms

run 1 pre no post no
Step Temp E_pair E_mol TotEng Press 
      99 3.2156341e-10            0 9.0808229e-05 9.0808711e-05 -5.6285611e-09 
     100 3.2156341e-10            0 9.0808318e-05 9.0808801e-05 -6.3059121e-09 
Loop time of 0.00163453 on 4 procs for 1 steps with 3210 atoms

run 1 pre no post no
Step Temp E_pair E_mol TotEng Press 
     100 3.2132881e-10            0 9.0808318e-05  9.08088e-05 -6.3059331e-09 
     101 3.2132881e-10            0 9.0808408e-05 9.080889e-05 -6.9899183e-09 
Loop time of 0.00059475 on 4 procs for 1 steps with 3210 atoms

run 1 pre no post no
Step Temp E_pair E_mol TotEng Press 
     101 3.210885e-10            0 9.0808408e-05 9.080889e-05 -6.9899397e-09 
     102 3.210885e-10            0 9.0808499e-05 9.080898e-05 -7.6754279e-09 
Loop time of 0.000602775 on 4 procs for 1 steps with 3210 atoms

run 1 pre no post no
Step Temp E_pair E_mol TotEng Press 
     102 3.2085052e-10            0 9.0808499e-05 9.080898e-05 -7.6754491e-09 
     103 3.2085052e-10            0 9.0808589e-05 9.080907e-05 -8.3605371e-09 
Loop time of 0.000602425 on 4 procs for 1 steps with 3210 atoms

run 1 pre no post no
Step Temp E_pair E_mol TotEng Press 
     103 3.2060826e-10            0 9.0808589e-05 9.080907e-05 -8.3605587e-09 
     104 3.2060826e-10            0 9.080868e-05 9.0809161e-05 -9.0414984e-09 
Loop time of 0.0007114 on 4 procs for 1 steps with 3210 atoms

run 1 pre no post no
Step Temp E_pair E_mol TotEng Press 
     104 3.2036839e-10            0 9.080868e-05 9.0809161e-05 -9.0415198e-09 
     105 3.2036839e-10            0 9.0808772e-05 9.0809252e-05 -9.7176884e-09 
Loop time of 0.0005884 on 4 procs for 1 steps with 3210 atoms

run 1 pre no post no
Step Temp E_pair E_mol TotEng Press 
     105 3.2012417e-10            0 9.0808772e-05 9.0809252e-05 -9.7177101e-09 
     106 3.2012417e-10            0 9.0808863e-05 9.0809344e-05 -1.038695e-08 
Loop time of 0.00220605 on 4 procs for 1 steps with 3210 atoms

run 1 pre no post no
Step Temp E_pair E_mol TotEng Press 
     106 3.2009456e-10            0 9.0808863e-05 9.0809343e-05 -1.0386953e-08 
     107 3.2009456e-10            0 9.0808956e-05 9.0809436e-05 -1.1243213e-08 
Loop time of 0.000596275 on 4 procs for 1 steps with 3210 atoms

run 1 pre no post no
Step Temp E_pair E_mol TotEng Press 
     107  3.19905e-10            0 9.0808956e-05 9.0809435e-05 -1.124323e-08 
     108  3.19905e-10            0 9.0809048e-05 9.0809528e-05 -1.2108889e-08 
Loop time of 0.000627925 on 4 procs for 1 steps with 3210 atoms

run 1 pre no post no
Step Temp E_pair E_mol TotEng Press 
     108 3.1968441e-10            0 9.0809048e-05 9.0809528e-05 -1.2108909e-08 
     109 3.1968441e-10            0 9.0809142e-05 9.0809621e-05 -1.2960715e-08 
Loop time of 0.000623775 on 4 procs for 1 steps with 3210 atoms

run 1 pre no post no
Step Temp E_pair E_mol TotEng Press 
     109 3.1943132e-10            0 9.0809142e-05 9.0809621e-05 -1.2960738e-08 
     110 3.1943132e-10            0 9.0809235e-05 9.0809714e-05 -1.3799011e-08 
Loop time of 0.00172565 on 4 procs for 1 steps with 3210 atoms

run 1 pre no post no
Step Temp E_pair E_mol TotEng Press 
     110 3.1917547e-10            0 9.0809235e-05 9.0809714e-05 -1.3799034e-08 
     111 3.1917547e-10            0 9.080933e-05 9.0809808e-05 -1.4623797e-08 
Loop time of 0.0006268 on 4 procs for 1 steps with 3210 atoms

run 1 pre no post no
Step Temp E_pair E_mol TotEng Press 
     111 3.1890894e-10            0 9.080933e-05 9.0809808e-05 -1.462382e-08 
     112 3.1890894e-10            0 9.0809424e-05 9.0809903e-05 -1.543407e-08 
Loop time of 0.00060555 on 4 procs for 1 steps with 3210 atoms

run 1 pre no post no
Step Temp E_pair E_mol TotEng Press 
     112 3.1864436e-10            0 9.0809424e-05 9.0809902e-05 -1.5434093e-08 
     113 3.1864436e-10            0 9.080952e-05 9.0809998e-05 -1.6232447e-08 
Loop time of 0.000772925 on 4 procs for 1 steps with 3210 atoms

run 1 pre no post no
Step Temp E_pair E_mol TotEng Press 
     113 3.1836669e-10            0 9.080952e-05 9.0809998e-05 -1.6232472e-08 
     114 3.1836669e-10            0 9.0809617e-05 9.0810094e-05 -1.7024177e-08 
Loop time of 0.000691675 on 4 procs for 1 steps with 3210 atoms

run 1 pre no post no
Step Temp E_pair E_mol TotEng Press 
     114 3.1808175e-10            0 9.0809617e-05 9.0810094e-05 -1.7024202e-08 
     115 3.1808175e-10            0 9.0809715e-05 9.0810192e-05 -1.7817028e-08 
Loop time of 0.000794125 on 4 procs for 1 steps with 3210 atoms

run 1 pre no post no
Step Temp E_pair E_mol TotEng Press 
     115 3.1777635e-10            0 9.0809715e-05 9.0810191e-05 -1.7817055e-08 
     116 3.1777635e-10            0 9.0809813e-05 9.0810289e-05 -1.8616135e-08 
Loop time of 0.000643675 on 4 procs for 1 steps with 3210 atoms

run 1 pre no post no
Step Temp E_pair E_mol TotEng Press 
     116 3.1745724e-10            0 9.0809813e-05 9.0810289e-05 -1.8616163e-08 
     117 3.1745724e-10            0 9.0809911e-05 9.0810387e-05 -1.942455e-08 
Loop time of 0.000606725 on 4 procs for 1 steps with 3210 atoms

run 1 pre no post no
Step Temp E_pair E_mol TotEng Press 
     117 3.1711579e-10            0 9.0809911e-05 9.0810387e-05 -1.942458e-08 
     118 3.1711579e-10            0 9.081001e-05 9.0810486e-05 -2.0240931e-08 
Loop time of 0.00064735 on 4 procs for 1 steps with 3210 atoms

run 1 pre no post no
Step Temp E_pair E_mol TotEng Press 
     118 3.1676034e-10            0 9.081001e-05 9.0810485e-05 -2.0240963e-08 
     119 3.1676034e-10            0 9.0810109e-05 9.0810584e-05 -2.1062438e-08 
Loop time of 0.000601475 on 4 procs for 1 steps with 3210 atoms

run 1 pre no post no
Step Temp E_pair E_mol TotEng Press 
     119 3.1638515e-10            0 9.0810109e-05 9.0810584e-05 -2.1062472e-08 
     120 3.1638515e-10            0 9.0810209e-05 9.0810683e-05 -2.1884063e-08 
Loop time of 0.00216055 on 4 procs for 1 steps with 3210 atoms

run 1 pre no post no
Step Temp E_pair E_mol TotEng Press 
     120 3.1599853e-10            0 9.0810209e-05 9.0810683e-05 -2.1884098e-08 
     121 3.1599853e-10            0 9.0810308e-05 9.0810782e-05 -2.2701491e-08 
Loop time of 0.0006146 on 4 procs for 1 steps with 3210 atoms

run 1 pre no post no
Step Temp E_pair E_mol TotEng Press 
     121 3.1559569e-10            0 9.0810308e-05 9.0810782e-05 -2.2701527e-08 
     122 3.1559569e-10            0 9.0810408e-05 9.0810881e-05 -2.3510225e-08 
Loop time of 0.00117682 on 4 procs for 1 steps with 3210 atoms

run 1 pre no post no
Step Temp E_pair E_mol TotEng Press 
     122 3.1518403e-10            0 9.0810408e-05 9.0810881e-05 -2.3510262e-08 
     123 3.1518403e-10            0 9.0810508e-05 9.081098e-05 -2.4307476e-08 
Loop time of 0.000662125 on 4 procs for 1 steps with 3210 atoms

run 1 pre no post no
Step Temp E_pair E_mol TotEng Press 
     123 3.1475899e-10            0 9.0810508e-05 9.081098e-05 -2.4307514e-08 
     124 3.1475899e-10            0 9.0810607e-05 9.0811079e-05 -2.5090883e-08 
Loop time of 0.0006091 on 4 procs for 1 steps with 3210 atoms

run 1 pre no post no
Step Temp E_pair E_mol TotEng Press 
     124 3.1432698e-10            0 9.0810607e-05 9.0811079e-05 -2.5090921e-08 
     125 3.1432698e-10            0 9.0810707e-05 9.0811178e-05 -2.585963e-08 
Loop time of 0.0006019 on 4 procs for 1 steps with 3210 atoms

run 1 pre no post no
Step Temp E_pair E_mol TotEng Press 
     125 3.138837e-10            0 9.0810707e-05 9.0811178e-05 -2.585967e-08 
     126 3.138837e-10            0 9.0810806e-05 9.0811277e-05 -2.6613078e-08 
Loop time of 0.000608075 on 4 procs for 1 steps with 3210 atoms

run 1 pre no post no
Step Temp E_pair E_mol TotEng Press 
     126 3.1343482e-10            0 9.0810806e-05 9.0811276e-05 -2.6613118e-08 
     127 3.1343482e-10            0 9.0810906e-05 9.0811376e-05 -2.7351439e-08 
Loop time of 0.000970675 on 4 procs for 1 steps with 3210 atoms

run 1 pre no post no
Step Temp E_pair E_mol TotEng Press 
     127 3.1297638e-10            0 9.0810906e-05 9.0811375e-05 -2.735148e-08 
     128 3.1297638e-10            0 9.0811005e-05 9.0811475e-05 -2.8074686e-08 
Loop time of 0.000638725 on 4 procs for 1 steps with 3210 atoms

run 1 pre no post no
Step Temp E_pair E_mol TotEng Press 
     128 3.1251349e-10            0 9.0811005e-05 9.0811474e-05 -2.8074727e-08 
     129 3.1251349e-10            0 9.0811104e-05 9.0811573e-05 -2.8783102e-08 
Loop time of 0.00060025 on 4 procs for 1 steps with 3210 atoms

run 1 pre no post no
Step Temp E_pair E_mol TotEng Press 
     129 3.1204253e-10            0 9.0811104e-05 9.0811572e-05 -2.8783144e-08 
     130 3.1204253e-10            0 9.0811203e-05 9.0811671e-05 -2.9476583e-08 
Loop time of 0.00375867 on 4 procs for 1 steps with 3210 atoms

run 1 pre no post no
Step Temp E_pair E_mol TotEng Press 
     130 3.1095828e-10            0 9.0811203e-05 9.081167e-05 -2.9476679e-08 
     131 3.1095828e-10            0 9.0811308e-05 9.0811774e-05 -3.0732937e-08 
Loop time of 0.0006207 on 4 procs for 1 steps with 3210 atoms

run 1 pre no post no
Step Temp E_pair E_mol TotEng Press 
     131 3.1028906e-10            0 9.0811308e-05 9.0811773e-05 -3.0732996e-08 
     132 3.1028906e-10            0 9.0811413e-05 9.0811878e-05 -3.1995566e-08 
Loop time of 0.000628375 on 4 procs for 1 steps with 3210 atoms

run 1 pre no post no
Step Temp E_pair E_mol TotEng Press 
     132 3.0966105e-10            0 9.0811413e-05 9.0811877e-05 -3.1995622e-08 
     133 3.0966105e-10            0 9.0811516e-05 9.081198e-05 -3.3210977e-08 
Loop time of 0.0006065 on 4 procs for 1 steps with 3210 atoms

run 1 pre no post no
Step Temp E_pair E_mol TotEng Press 
     133 3.0905805e-10            0 9.0811516e-05 9.0811979e-05 -3.3211031e-08 
     134 3.0905805e-10            0 9.0811618e-05 9.0812081e-05 -3.4364572e-08 
Loop time of 0.00060475 on 4 procs for 1 steps with 3210 atoms

run 1 pre no post no
Step Temp E_pair E_mol TotEng Press 
     134 3.0842696e-10            0 9.0811618e-05 9.0812081e-05 -3.4364629e-08 
     135 3.0842696e-10            0 9.0811719e-05 9.0812181e-05 -3.5462529e-08 
Loop time of 0.0006137 on 4 procs for 1 steps with 3210 atoms

run 1 pre no post no
Step Temp E_pair E_mol TotEng Press 
     135 3.0778623e-10            0 9.0811719e-05 9.081218e-05 -3.5462586e-08 
     136 3.0778623e-10            0 9.0811818e-05 9.081228e-05 -3.649493e-08 
Loop time of 0.000609975 on 4 procs for 1 steps with 3210 atoms

run 1 pre no post no
Step Temp E_pair E_mol TotEng Press 
     136 3.0712388e-10            0 9.0811818e-05 9.0812279e-05 -3.6494989e-08 
     137 3.0712388e-10            0 9.0811916e-05 9.0812377e-05 -3.7457877e-08 
Loop time of 0.0006866 on 4 procs for 1 steps with 3210 atoms

run 1 pre no post no
Step Temp E_pair E_mol TotEng Press 
     137 3.0646633e-10            0 9.0811916e-05 9.0812376e-05 -3.7457936e-08 
     138 3.0646633e-10            0 9.0812013e-05 9.0812473e-05 -3.8349018e-08 
Loop time of 0.00121898 on 4 procs for 1 steps with 3210 atoms

run 1 pre no post no
Step Temp E_pair E_mol TotEng Press 
     138 3.0581042e-10            0 9.0812013e-05 9.0812472e-05 -3.8349077e-08 
     139 3.0581042e-10            0 9.081211e-05 9.0812568e-05 -3.9176358e-08 
Loop time of 0.00063995 on 4 procs for 1 steps with 3210 atoms

run 1 pre no post no
Step Temp E_pair E_mol TotEng Press 
     139 3.0517456e-10            0 9.081211e-05 9.0812567e-05 -3.9176415e-08 
     140 3.0517456e-10            0 9.0812205e-05 9.0812663e-05 -3.9949056e-08 
Loop time of 0.00166863 on 4 procs for 1 steps with 3210 atoms

run 1 pre no post no
Step Temp E_pair E_mol TotEng Press 
     140 3.0455319e-10            0 9.0812205e-05 9.0812662e-05 -3.9949112e-08 
     141 3.0455319e-10            0  9.08123e-05 9.0812757e-05 -4.0678237e-08 
Loop time of 0.000613025 on 4 procs for 1 steps with 3210 atoms

run 1 pre no post no
Step Temp E_pair E_mol TotEng Press 
     141 3.0395553e-10            0  9.08123e-05 9.0812756e-05 -4.0678291e-08 
     142 3.0395553e-10            0 9.0812394e-05 9.081285e-05 -4.1370658e-08 
Loop time of 0.0006218 on 4 procs for 1 steps with 3210 atoms

run 1 pre no post no
Step Temp E_pair E_mol TotEng Press 
     142 3.0337331e-10            0 9.0812394e-05 9.0812849e-05 -4.137071e-08 
     143 3.0337331e-10            0 9.0812488e-05 9.0812943e-05 -4.2031153e-08 
Loop time of 0.0006034 on 4 procs for 1 steps with 3210 atoms

run 1 pre no post no
Step Temp E_pair E_mol TotEng Press 
     143 3.0281006e-10            0 9.0812488e-05 9.0812943e-05 -4.2031203e-08 
     144 3.0281006e-10            0 9.0812582e-05 9.0813036e-05 -4.2660526e-08 
Loop time of 0.0008163 on 4 procs for 1 steps with 3210 atoms

run 1 pre no post no
Step Temp E_pair E_mol TotEng Press 
     144 3.0225714e-10            0 9.0812582e-05 9.0813035e-05 -4.2660575e-08 
     145 3.0225714e-10            0 9.0812675e-05 9.0813128e-05 -4.3259241e-08 
Loop time of 0.00121912 on 4 procs for 1 steps with 3210 atoms

run 1 pre no post no
Step Temp E_pair E_mol TotEng Press 
     145 3.0171585e-10            0 9.0812675e-05 9.0813128e-05 -4.3259289e-08 
     146 3.0171585e-10            0 9.0812768e-05 9.081322e-05 -4.3826582e-08 
Loop time of 0.0006318 on 4 procs for 1 steps with 3210 atoms

run 1 pre no post no
Step Temp E_pair E_mol TotEng Press 
     146 3.0117905e-10            0 9.0812768e-05 9.081322e-05 -4.382663e-08 
     147 3.0117905e-10            0 9.081286e-05 9.0813312e-05 -4.4363568e-08 
Loop time of 0.000988975 on 4 procs for 1 steps with 3210 atoms

run 1 pre no post no
Step Temp E_pair E_mol TotEng Press 
     147 3.0064789e-10            0 9.081286e-05 9.0813311e-05 -4.4363616e-08 
     148 3.0064789e-10            0 9.0812952e-05 9.0813403e-05 -4.4871583e-08 
Loop time of 0.00072715 on 4 procs for 1 steps with 3210 atoms

run 1 pre no post no
Step Temp E_pair E_mol TotEng Press 
     148 3.0011741e-10            0 9.0812952e-05 9.0813402e-05 -4.4871631e-08 
     149 3.0011741e-10            0 9.0813044e-05 9.0813494e-05 -4.5353901e-08 
Loop time of 0.00122543 on 4 procs for 1 steps with 3210 atoms

run 1 pre no post no
Step Temp E_pair E_mol TotEng Press 
     149 2.9958929e-10            0 9.0813044e-05 9.0813493e-05 -4.5353948e-08 
     150 2.9958929e-10            0 9.0813134e-05 9.0813584e-05 -4.5813652e-08 
Loop time of 0.0019565 on 4 procs for 1 steps with 3210 atoms

run 1 pre no post no
Step Temp E_pair E_mol TotEng Press 
     150 2.9906039e-10            0 9.0813134e-05 9.0813583e-05 -4.58137e-08 
     151 2.9906039e-10            0 9.0813224e-05 9.0813673e-05 -4.6254672e-08 
Loop time of 0.0006353 on 4 procs for 1 steps with 3210 atoms

run 1 pre no post no
Step Temp E_pair E_mol TotEng Press 
     151 2.9853265e-10            0 9.0813224e-05 9.0813672e-05 -4.6254719e-08 
     152 2.9853265e-10            0 9.0813314e-05 9.0813761e-05 -4.6679575e-08 
Loop time of 0.0006519 on 4 procs for 1 steps with 3210 atoms

run 1 pre no post no
Step Temp E_pair E_mol TotEng Press 
     152 2.9800407e-10            0 9.0813314e-05 9.0813761e-05 -4.6679622e-08 
     153 2.9800407e-10            0 9.0813402e-05 9.0813849e-05 -4.709066e-08 
Loop time of 0.00111188 on 4 procs for 1 steps with 3210 atoms

run 1 pre no post no
Step Temp E_pair E_mol TotEng Press 
     153 2.9747647e-10            0 9.0813402e-05 9.0813848e-05 -4.7090707e-08 
     154 2.9747647e-10            0 9.081349e-05 9.0813936e-05 -4.7488532e-08 
Loop time of 0.000636125 on 4 procs for 1 steps with 3210 atoms

run 1 pre no post no
Step Temp E_pair E_mol TotEng Press 
     154 2.9694841e-10            0 9.081349e-05 9.0813935e-05 -4.7488579e-08 
     155 2.9694841e-10            0 9.0813576e-05 9.0814021e-05 -4.7873341e-08 
Loop time of 0.00238443 on 4 procs for 1 steps with 3210 atoms

run 1 pre no post no
Step Temp E_pair E_mol TotEng Press 
     155 2.9526637e-10            0 9.0813576e-05 9.0814019e-05 -4.7873491e-08 
     156 2.9526637e-10            0 9.0813675e-05 9.0814118e-05 -4.8952096e-08 
Loop time of 0.000642275 on 4 procs for 1 steps with 3210 atoms

run 1 pre no post no
Step Temp E_pair E_mol TotEng Press 
     156 2.9440961e-10            0 9.0813675e-05 9.0814117e-05 -4.8952172e-08 
     157 2.9440961e-10            0 9.0813773e-05 9.0814215e-05 -4.9945049e-08 
Loop time of 0.000734725 on 4 procs for 1 steps with 3210 atoms

run 1 pre no post no
Step Temp E_pair E_mol TotEng Press 
     157 2.9365317e-10            0 9.0813773e-05 9.0814214e-05 -4.9945117e-08 
     158 2.9365317e-10            0 9.0813868e-05 9.0814308e-05 -5.0819451e-08 
Loop time of 0.000876525 on 4 procs for 1 steps with 3210 atoms

run 1 pre no post no
Step Temp E_pair E_mol TotEng Press 
     158 2.9296793e-10            0 9.0813868e-05 9.0814307e-05 -5.0819512e-08 
     159 2.9296793e-10            0 9.0813959e-05 9.0814399e-05 -5.1616304e-08 
Loop time of 0.000898275 on 4 procs for 1 steps with 3210 atoms

run 1 pre no post no
Step Temp E_pair E_mol TotEng Press 
     159 2.9223547e-10            0 9.0813959e-05 9.0814397e-05 -5.1616369e-08 
     160 2.9223547e-10            0 9.0814048e-05 9.0814486e-05 -5.2382181e-08 
Loop time of 0.00210412 on 4 procs for 1 steps with 3210 atoms

run 1 pre no post no
Step Temp E_pair E_mol TotEng Press 
     160 2.9148395e-10            0 9.0814048e-05 9.0814485e-05 -5.2382248e-08 
     161 2.9148395e-10            0 9.0814133e-05 9.081457e-05 -5.3111088e-08 
Loop time of 0.000814775 on 4 procs for 1 steps with 3210 atoms

run 1 pre no post no
Step Temp E_pair E_mol TotEng Press 
     161 2.9068689e-10            0 9.0814133e-05 9.0814569e-05 -5.3111159e-08 
     162 2.9068689e-10            0 9.0814215e-05 9.0814651e-05 -5.3780488e-08 
Loop time of 0.000674 on 4 procs for 1 steps with 3210 atoms

run 1 pre no post no
Step Temp E_pair E_mol TotEng Press 
     162 2.8989678e-10            0 9.0814215e-05 9.081465e-05 -5.3780558e-08 
     163 2.8989678e-10            0 9.0814294e-05 9.0814729e-05 -5.4354701e-08 
Loop time of 0.000825375 on 4 procs for 1 steps with 3210 atoms

run 1 pre no post no
Step Temp E_pair E_mol TotEng Press 
     163 2.8911313e-10            0 9.0814294e-05 9.0814728e-05 -5.4354771e-08 
     164 2.8911313e-10            0 9.0814371e-05 9.0814805e-05 -5.4818564e-08 
Loop time of 0.000713925 on 4 procs for 1 steps with 3210 atoms

run 1 pre no post no
Step Temp E_pair E_mol TotEng Press 
     164 2.883744e-10            0 9.0814371e-05 9.0814804e-05 -5.481863e-08 
     165 2.883744e-10            0 9.0814447e-05 9.0814879e-05 -5.5165256e-08 
Loop time of 0.00086535 on 4 procs for 1 steps with 3210 atoms

run 1 pre no post no
Step Temp E_pair E_mol TotEng Press 
     165 2.8767407e-10            0 9.0814447e-05 9.0814878e-05 -5.5165319e-08 
     166 2.8767407e-10            0 9.081452e-05 9.0814952e-05 -5.5409162e-08 
Loop time of 0.000639725 on 4 procs for 1 steps with 3210 atoms

run 1 pre no post no
Step Temp E_pair E_mol TotEng Press 
     166 2.8702926e-10            0 9.081452e-05 9.0814951e-05 -5.5409219e-08 
     167 2.8702926e-10            0 9.0814593e-05 9.0815024e-05 -5.5564378e-08 
Loop time of 0.000817525 on 4 procs for 1 steps with 3210 atoms

run 1 pre no post no
Step Temp E_pair E_mol TotEng Press 
     167 2.8642508e-10            0 9.0814593e-05 9.0815023e-05 -5.5564432e-08 
     168 2.8642508e-10            0 9.0814665e-05 9.0815095e-05 -5.5653376e-08 
Loop time of 0.0007997 on 4 procs for 1 steps with 3210 atoms

run 1 pre no post no
Step Temp E_pair E_mol TotEng Press 
     168 2.8586561e-10            0 9.0814665e-05 9.0815094e-05 -5.5653426e-08 
     169 2.8586561e-10            0 9.0814737e-05 9.0815165e-05 -5.5689224e-08 
Loop time of 0.00114415 on 4 procs for 1 steps with 3210 atoms

run 1 pre no post no
Step Temp E_pair E_mol TotEng Press 
     169 2.8533436e-10            0 9.0814737e-05 9.0815164e-05 -5.5689272e-08 
     170 2.8533436e-10            0 9.0814807e-05 9.0815235e-05 -5.5687531e-08 
Loop time of 0.00192357 on 4 procs for 1 steps with 3210 atoms

run 1 pre no post no
Step Temp E_pair E_mol TotEng Press 
     170 2.8483119e-10            0 9.0814807e-05 9.0815234e-05 -5.5687576e-08 
     171 2.8483119e-10            0 9.0814876e-05 9.0815304e-05 -5.5653946e-08 
Loop time of 0.00069455 on 4 procs for 1 steps with 3210 atoms

run 1 pre no post no
Step Temp E_pair E_mol TotEng Press 
     171 2.8434282e-10            0 9.0814876e-05 9.0815303e-05 -5.5653989e-08 
     172 2.8434282e-10            0 9.0814945e-05 9.0815371e-05 -5.559777e-08 
Loop time of 0.00163975 on 4 procs for 1 steps with 3210 atoms

run 1 pre no post no
Step Temp E_pair E_mol TotEng Press 
     172 2.8386945e-10            0 9.0814945e-05 9.0815371e-05 -5.5597813e-08 
     173 2.8386945e-10            0 9.0815012e-05 9.0815438e-05 -5.5521423e-08 
Loop time of 0.00068975 on 4 procs for 1 steps with 3210 atoms

run 1 pre no post no
Step Temp E_pair E_mol TotEng Press 
     173 2.8340222e-10            0 9.0815012e-05 9.0815437e-05 -5.5521465e-08 
     174 2.8340222e-10            0 9.0815079e-05 9.0815504e-05 -5.5432766e-08 
Loop time of 0.0013759 on 4 procs for 1 steps with 3210 atoms

run 1 pre no post no
Step Temp E_pair E_mol TotEng Press 
     174 2.8294259e-10            0 9.0815079e-05 9.0815503e-05 -5.5432807e-08 
     175 2.8294259e-10            0 9.0815144e-05 9.0815568e-05 -5.5334413e-08 
Loop time of 0.000717625 on 4 procs for 1 steps with 3210 atoms

run 1 pre no post no
Step Temp E_pair E_mol TotEng Press 
     175 2.8248526e-10            0 9.0815144e-05 9.0815567e-05 -5.5334454e-08 
     176 2.8248526e-10            0 9.0815207e-05 9.0815631e-05 -5.5234132e-08 
Loop time of 0.000827525 on 4 procs for 1 steps with 3210 atoms

run 1 pre no post no
Step Temp E_pair E_mol TotEng Press 
     176 2.8203234e-10            0 9.0815207e-05 9.081563e-05 -5.5234173e-08 
     177 2.8203234e-10            0 9.081527e-05 9.0815692e-05 -5.5134148e-08 
Loop time of 0.00141595 on 4 procs for 1 steps with 3210 atoms

run 1 pre no post no
Step Temp E_pair E_mol TotEng Press 
     177 2.8158078e-10            0 9.081527e-05 9.0815692e-05 -5.5134188e-08 
     178 2.8158078e-10            0 9.081533e-05 9.0815753e-05 -5.5040451e-08 
Loop time of 0.0008205 on 4 procs for 1 steps with 3210 atoms

run 1 pre no post no
Step Temp E_pair E_mol TotEng Press 
     178 2.8113271e-10            0 9.081533e-05 9.0815752e-05 -5.5040491e-08 
     179 2.8113271e-10            0 9.081539e-05 9.0815812e-05 -5.4952943e-08 
Loop time of 0.00121845 on 4 procs for 1 steps with 3210 atoms

run 1 pre no post no
Step Temp E_pair E_mol TotEng Press 
     179 2.806864e-10            0 9.081539e-05 9.0815811e-05 -5.4952983e-08 
     180 2.806864e-10            0 9.0815448e-05 9.0815869e-05 -5.4874422e-08 
Loop time of 0.00188722 on 4 procs for 1 steps with 3210 atoms

run 1 pre no post no
Step Temp E_pair E_mol TotEng Press 
     180 2.8024359e-10            0 9.0815448e-05 9.0815868e-05 -5.4874461e-08 
     181 2.8024359e-10            0 9.0815505e-05 9.0815925e-05 -5.4801875e-08 
Loop time of 0.00271593 on 4 procs for 1 steps with 3210 atoms

run 1 pre no post no
Step Temp E_pair E_mol TotEng Press 
     181 2.7880166e-10            0 9.0815505e-05 9.0815923e-05 -5.4802003e-08 
     182 2.7880166e-10            0 9.0815567e-05 9.0815985e-05 -5.5188189e-08 
Loop time of 0.0007719 on 4 procs for 1 steps with 3210 atoms

run 1 pre no post no
Step Temp E_pair E_mol TotEng Press 
     182 2.780626e-10            0 9.0815567e-05 9.0815984e-05 -5.5188255e-08 
     183 2.780626e-10            0 9.0815627e-05 9.0816044e-05 -5.5458682e-08 
Loop time of 0.00092835 on 4 procs for 1 steps with 3210 atoms

run 1 pre no post no
Step Temp E_pair E_mol TotEng Press 
     183 2.7744384e-10            0 9.0815627e-05 9.0816043e-05 -5.5458737e-08 
     184 2.7744384e-10            0 9.0815683e-05 9.0816099e-05 -5.558841e-08 
Loop time of 0.000651375 on 4 procs for 1 steps with 3210 atoms

run 1 pre no post no
Step Temp E_pair E_mol TotEng Press 
     184 2.7688342e-10            0 9.0815683e-05 9.0816099e-05 -5.558846e-08 
     185 2.7688342e-10            0 9.0815737e-05 9.0816152e-05 -5.5677767e-08 
Loop time of 0.000817825 on 4 procs for 1 steps with 3210 atoms

run 1 pre no post no
Step Temp E_pair E_mol TotEng Press 
     185 2.7629712e-10            0 9.0815737e-05 9.0816152e-05 -5.5677819e-08 
     186 2.7629712e-10            0 9.0815789e-05 9.0816203e-05 -5.5794137e-08 
Loop time of 0.000882275 on 4 procs for 1 steps with 3210 atoms

run 1 pre no post no
Step Temp E_pair E_mol TotEng Press 
     186 2.7567166e-10            0 9.0815789e-05 9.0816202e-05 -5.5794193e-08 
     187 2.7567166e-10            0 9.0815838e-05 9.0816252e-05 -5.5956235e-08 
Loop time of 0.0007804 on 4 procs for 1 steps with 3210 atoms

run 1 pre no post no
Step Temp E_pair E_mol TotEng Press 
     187 2.7500439e-10            0 9.0815838e-05 9.0816251e-05 -5.5956294e-08 
     188 2.7500439e-10            0 9.0815885e-05 9.0816298e-05 -5.6134519e-08 
Loop time of 0.000750375 on 4 procs for 1 steps with 3210 atoms

run 1 pre no post no
Step Temp E_pair E_mol TotEng Press 
     188 2.7431912e-10            0 9.0815885e-05 9.0816296e-05 -5.613458e-08 
     189 2.7431912e-10            0 9.081593e-05 9.0816341e-05 -5.6275984e-08 
Loop time of 0.000893775 on 4 procs for 1 steps with 3210 atoms

run 1 pre no post no
Step Temp E_pair E_mol TotEng Press 
     189 2.7364093e-10            0 9.081593e-05 9.081634e-05 -5.6276045e-08 
     190 2.7364093e-10            0 9.0815973e-05 9.0816383e-05 -5.6337467e-08 
Loop time of 0.00174165 on 4 procs for 1 steps with 3210 atoms

run 1 pre no post no
Step Temp E_pair E_mol TotEng Press 
     190 2.7299044e-10            0 9.0815973e-05 9.0816382e-05 -5.6337525e-08 
     191 2.7299044e-10            0 9.0816015e-05 9.0816424e-05 -5.6288191e-08 
Loop time of 0.000799425 on 4 procs for 1 steps with 3210 atoms

run 1 pre no post no
Step Temp E_pair E_mol TotEng Press 
     191 2.7238441e-10            0 9.0816015e-05 9.0816423e-05 -5.6288246e-08 
     192 2.7238441e-10            0 9.0816056e-05 9.0816464e-05 -5.6127567e-08 
Loop time of 0.000698575 on 4 procs for 1 steps with 3210 atoms

run 1 pre no post no
Step Temp E_pair E_mol TotEng Press 
     192 2.7182506e-10            0 9.0816056e-05 9.0816463e-05 -5.6127617e-08 
     193 2.7182506e-10            0 9.0816096e-05 9.0816504e-05 -5.5864626e-08 
Loop time of 0.0006785 on 4 procs for 1 steps with 3210 atoms

run 1 pre no post no
Step Temp E_pair E_mol TotEng Press 
     193 2.7131521e-10            0 9.0816096e-05 9.0816503e-05 -5.5864672e-08 
     194 2.7131521e-10            0 9.0816136e-05 9.0816543e-05 -5.5526557e-08 
Loop time of 0.000778525 on 4 procs for 1 steps with 3210 atoms

run 1 pre no post no
Step Temp E_pair E_mol TotEng Press 
     194 2.7084438e-10            0 9.0816136e-05 9.0816542e-05 -5.5526599e-08 
     195 2.7084438e-10            0 9.0816177e-05 9.0816583e-05 -5.5134109e-08 
Loop time of 0.000658375 on 4 procs for 1 steps with 3210 atoms

run 1 pre no post no
Step Temp E_pair E_mol TotEng Press 
     195 2.7040934e-10            0 9.0816177e-05 9.0816582e-05 -5.5134148e-08 
     196 2.7040934e-10            0 9.0816217e-05 9.0816622e-05 -5.4713161e-08 
Loop time of 0.000649275 on 4 procs for 1 steps with 3210 atoms

run 1 pre no post no
Step Temp E_pair E_mol TotEng Press 
     196 2.6999637e-10            0 9.0816217e-05 9.0816622e-05 -5.4713198e-08 
     197 2.6999637e-10            0 9.0816257e-05 9.0816662e-05 -5.4275758e-08 
Loop time of 0.000734875 on 4 procs for 1 steps with 3210 atoms

run 1 pre no post no
Step Temp E_pair E_mol TotEng Press 
     197 2.6960312e-10            0 9.0816257e-05 9.0816661e-05 -5.4275793e-08 
     198 2.6960312e-10            0 9.0816297e-05 9.0816701e-05 -5.3836431e-08 
Loop time of 0.00078365 on 4 procs for 1 steps with 3210 atoms

run 1 pre no post no
Step Temp E_pair E_mol TotEng Press 
     198 2.6921784e-10            0 9.0816297e-05 9.0816701e-05 -5.3836465e-08 
     199 2.6921784e-10            0 9.0816336e-05 9.081674e-05 -5.3397753e-08 
Loop time of 0.0006476 on 4 procs for 1 steps with 3210 atoms

run 1 pre no post no
Step Temp E_pair E_mol TotEng Press 
     199 2.6884134e-10            0 9.0816336e-05 9.081674e-05 -5.3397786e-08 
     200 2.6884134e-10            0 9.0816376e-05 9.0816779e-05 -5.296744e-08 
Loop time of 0.00224732 on 4 procs for 1 steps with 3210 atoms

run 1 pre no post no
Step Temp E_pair E_mol TotEng Press 
     200 2.6846475e-10            0 9.0816376e-05 9.0816778e-05 -5.2967473e-08 
     201 2.6846475e-10            0 9.0816414e-05 9.0816817e-05 -5.2544971e-08 
Loop time of 0.000636825 on 4 procs for 1 steps with 3210 atoms

run 1 pre no post no
Step Temp E_pair E_mol TotEng Press 
     201 2.6809164e-10            0 9.0816414e-05 9.0816816e-05 -5.2545004e-08 
     202 2.6809164e-10            0 9.0816452e-05 9.0816854e-05 -5.2136712e-08 
Loop time of 0.000647225 on 4 procs for 1 steps with 3210 atoms

run 1 pre no post no
Step Temp E_pair E_mol TotEng Press 
     202 2.677153e-10            0 9.0816452e-05 9.0816854e-05 -5.2136746e-08 
     203 2.677153e-10            0 9.0816489e-05 9.0816891e-05 -5.1742346e-08 
Loop time of 0.00115405 on 4 procs for 1 steps with 3210 atoms

run 1 pre no post no
Step Temp E_pair E_mol TotEng Press 
     203 2.6734092e-10            0 9.0816489e-05 9.081689e-05 -5.174238e-08 
     204 2.6734092e-10            0 9.0816526e-05 9.0816927e-05 -5.1367907e-08 
Loop time of 0.0008197 on 4 procs for 1 steps with 3210 atoms

run 1 pre no post no
Step Temp E_pair E_mol TotEng Press 
     204 2.6696314e-10            0 9.0816526e-05 9.0816926e-05 -5.1367941e-08 
     205 2.6696314e-10            0 9.0816562e-05 9.0816962e-05 -5.1012646e-08 
Loop time of 0.0006292 on 4 procs for 1 steps with 3210 atoms

run 1 pre no post no
Step Temp E_pair E_mol TotEng Press 
     205  2.66588e-10            0 9.0816562e-05 9.0816961e-05 -5.101268e-08 
     206  2.66588e-10            0 9.0816596e-05 9.0816996e-05 -5.0680862e-08 
Loop time of 0.000639175 on 4 procs for 1 steps with 3210 atoms

run 1 pre no post no
Step Temp E_pair E_mol TotEng Press 
     206 2.662109e-10            0 9.0816596e-05 9.0816996e-05 -5.0680896e-08 
     207 2.662109e-10            0 9.0816631e-05 9.081703e-05 -5.0369907e-08 
Loop time of 0.00206992 on 4 procs for 1 steps with 3210 atoms

run 1 pre no post no
Step Temp E_pair E_mol TotEng Press 
     207 2.6523256e-10            0 9.0816631e-05 9.0817028e-05 -5.0369995e-08 
     208 2.6523256e-10            0 9.0816666e-05 9.0817064e-05 -5.0321642e-08 
Loop time of 0.000627175 on 4 procs for 1 steps with 3210 atoms

run 1 pre no post no
Step Temp E_pair E_mol TotEng Press 
     208 2.6465569e-10            0 9.0816666e-05 9.0817063e-05 -5.0321694e-08 
     209 2.6465569e-10            0  9.08167e-05 9.0817097e-05 -5.0192173e-08 
Loop time of 0.00073865 on 4 procs for 1 steps with 3210 atoms

run 1 pre no post no
Step Temp E_pair E_mol TotEng Press 
     209 2.6417854e-10            0  9.08167e-05 9.0817096e-05 -5.0192216e-08 
     210 2.6417854e-10            0 9.0816732e-05 9.0817128e-05 -4.9955183e-08 
Loop time of 0.0029762 on 4 procs for 1 steps with 3210 atoms

run 1 pre no post no
Step Temp E_pair E_mol TotEng Press 
     210 2.6373078e-10            0 9.0816732e-05 9.0817127e-05 -4.9955223e-08 
     211 2.6373078e-10            0 9.0816762e-05 9.0817158e-05 -4.9708867e-08 
Loop time of 0.00118478 on 4 procs for 1 steps with 3210 atoms

run 1 pre no post no
Step Temp E_pair E_mol TotEng Press 
     211 2.6328455e-10            0 9.0816762e-05 9.0817157e-05 -4.9708906e-08 
     212 2.6328455e-10            0 9.0816792e-05 9.0817186e-05 -4.9506726e-08 
Loop time of 0.00590322 on 4 procs for 1 steps with 3210 atoms

run 1 pre no post no
Step Temp E_pair E_mol TotEng Press 
     212 2.6279925e-10            0 9.0816792e-05 9.0817186e-05 -4.9506769e-08 
     213 2.6279925e-10            0 9.0816821e-05 9.0817215e-05 -4.937748e-08 
Loop time of 0.00341348 on 4 procs for 1 steps with 3210 atoms

run 1 pre no post no
Step Temp E_pair E_mol TotEng Press 
     213 2.6229184e-10            0 9.0816821e-05 9.0817214e-05 -4.9377525e-08 
     214 2.6229184e-10            0 9.0816848e-05 9.0817242e-05 -4.9298157e-08 
Loop time of 0.0010826 on 4 procs for 1 steps with 3210 atoms

run 1 pre no post no
Step Temp E_pair E_mol TotEng Press 
     214 2.6175637e-10            0 9.0816848e-05 9.0817241e-05 -4.9298205e-08 
     215 2.6175637e-10            0 9.0816875e-05 9.0817268e-05 -4.922597e-08 
Loop time of 0.00128683 on 4 procs for 1 steps with 3210 atoms

run 1 pre no post no
Step Temp E_pair E_mol TotEng Press 
     215 2.6122873e-10            0 9.0816875e-05 9.0817267e-05 -4.9226017e-08 
     216 2.6122873e-10            0 9.0816901e-05 9.0817293e-05 -4.9114845e-08 
Loop time of 0.00103148 on 4 procs for 1 steps with 3210 atoms

run 1 pre no post no
Step Temp E_pair E_mol TotEng Press 
     216 2.6070964e-10            0 9.0816901e-05 9.0817292e-05 -4.9114891e-08 
     217 2.6070964e-10            0 9.0816927e-05 9.0817318e-05 -4.8930014e-08 
Loop time of 0.0007277 on 4 procs for 1 steps with 3210 atoms

run 1 pre no post no
Step Temp E_pair E_mol TotEng Press 
     217 2.6022788e-10            0 9.0816927e-05 9.0817317e-05 -4.8930057e-08 
     218 2.6022788e-10            0 9.0816953e-05 9.0817343e-05 -4.8659277e-08 
Loop time of 0.0007525 on 4 procs for 1 steps with 3210 atoms

run 1 pre no post no
Step Temp E_pair E_mol TotEng Press 
     218 2.5977474e-10            0 9.0816953e-05 9.0817342e-05 -4.8659317e-08 
     219 2.5977474e-10            0 9.0816979e-05 9.0817368e-05 -4.8304368e-08 
Loop time of 0.00064205 on 4 procs for 1 steps with 3210 atoms

run 1 pre no post no
Step Temp E_pair E_mol TotEng Press 
     219 2.5936564e-10            0 9.0816979e-05 9.0817368e-05 -4.8304404e-08 
     220 2.5936564e-10            0 9.0817005e-05 9.0817394e-05 -4.7883505e-08 
Loop time of 0.00229488 on 4 procs for 1 steps with 3210 atoms

run 1 pre no post no
Step Temp E_pair E_mol TotEng Press 
     220 2.5898362e-10            0 9.0817005e-05 9.0817393e-05 -4.7883539e-08 
     221 2.5898362e-10            0 9.0817032e-05 9.081742e-05 -4.7414818e-08 
Loop time of 0.00089055 on 4 procs for 1 steps with 3210 atoms

run 1 pre no post no
Step Temp E_pair E_mol TotEng Press 
     221 2.5863643e-10            0 9.0817032e-05 9.081742e-05 -4.7414849e-08 
     222 2.5863643e-10            0 9.0817059e-05 9.0817447e-05 -4.6920756e-08 
Loop time of 0.0007455 on 4 procs for 1 steps with 3210 atoms

run 1 pre no post no
Step Temp E_pair E_mol TotEng Press 
     222 2.583054e-10            0 9.0817059e-05 9.0817446e-05 -4.6920785e-08 
     223 2.583054e-10            0 9.0817087e-05 9.0817474e-05 -4.6414702e-08 
Loop time of 0.0009407 on 4 procs for 1 steps with 3210 atoms

run 1 pre no post no
Step Temp E_pair E_mol TotEng Press 
     223 2.5799669e-10            0 9.0817087e-05 9.0817474e-05 -4.6414729e-08 
     224 2.5799669e-10            0 9.0817115e-05 9.0817502e-05 -4.5910366e-08 
Loop time of 0.00067795 on 4 procs for 1 steps with 3210 atoms

run 1 pre no post no
Step Temp E_pair E_mol TotEng Press 
     224 2.5769386e-10            0 9.0817115e-05 9.0817502e-05 -4.5910393e-08 
     225 2.5769386e-10            0 9.0817144e-05 9.081753e-05 -4.5412318e-08 
Loop time of 0.0006491 on 4 procs for 1 steps with 3210 atoms

run 1 pre no post no
Step Temp E_pair E_mol TotEng Press 
     225 2.5740405e-10            0 9.0817144e-05 9.081753e-05 -4.5412344e-08 
     226 2.5740405e-10            0 9.0817173e-05 9.0817559e-05 -4.4927321e-08 
Loop time of 0.000948325 on 4 procs for 1 steps with 3210 atoms

run 1 pre no post no
Step Temp E_pair E_mol TotEng Press 
     226 2.5711394e-10            0 9.0817173e-05 9.0817558e-05 -4.4927347e-08 
     227 2.5711394e-10            0 9.0817202e-05 9.0817587e-05 -4.4455972e-08 
Loop time of 0.000703025 on 4 procs for 1 steps with 3210 atoms

run 1 pre no post no
Step Temp E_pair E_mol TotEng Press 
     227 2.5683176e-10            0 9.0817202e-05 9.0817587e-05 -4.4455998e-08 
     228 2.5683176e-10            0 9.081723e-05 9.0817616e-05 -4.4003044e-08 
Loop time of 0.0009519 on 4 procs for 1 steps with 3210 atoms

run 1 pre no post no
Step Temp E_pair E_mol TotEng Press 
     228 2.5654673e-10            0 9.081723e-05 9.0817615e-05 -4.400307e-08 
     229 2.5654673e-10            0 9.0817259e-05 9.0817644e-05 -4.3568829e-08 
Loop time of 0.000714725 on 4 procs for 1 steps with 3210 atoms

run 1 pre no post no
Step Temp E_pair E_mol TotEng Press 
     229 2.562677e-10            0 9.0817259e-05 9.0817643e-05 -4.3568854e-08 
     230 2.562677e-10            0 9.0817287e-05 9.0817672e-05 -4.3157858e-08 
Loop time of 0.0018064 on 4 procs for 1 steps with 3210 atoms

run 1 pre no post no
Step Temp E_pair E_mol TotEng Press 
     230 2.559857e-10            0 9.0817287e-05 9.0817671e-05 -4.3157883e-08 
     231 2.559857e-10            0 9.0817316e-05 9.0817699e-05 -4.2770234e-08 
Loop time of 0.00067685 on 4 procs for 1 steps with 3210 atoms

run 1 pre no post no
Step Temp E_pair E_mol TotEng Press 
     231 2.5570979e-10            0 9.0817316e-05 9.0817699e-05 -4.2770258e-08 
     232 2.5570979e-10            0 9.0817343e-05 9.0817727e-05 -4.2409299e-08 
Loop time of 0.00070665 on 4 procs for 1 steps with 3210 atoms

run 1 pre no post no
Step Temp E_pair E_mol TotEng Press 
     232 2.5543228e-10            0 9.0817343e-05 9.0817726e-05 -4.2409323e-08 
     233 2.5543228e-10            0 9.0817371e-05 9.0817754e-05 -4.2073648e-08 
Loop time of 0.000685175 on 4 procs for 1 steps with 3210 atoms

run 1 pre no post no
Step Temp E_pair E_mol TotEng Press 
     233 2.5516216e-10            0 9.0817371e-05 9.0817754e-05 -4.2073672e-08 
     234 2.5516216e-10            0 9.0817398e-05 9.0817781e-05 -4.1764297e-08 
Loop time of 0.00228915 on 4 procs for 1 steps with 3210 atoms

run 1 pre no post no
Step Temp E_pair E_mol TotEng Press 
     234 2.5454741e-10            0 9.0817398e-05 9.081778e-05 -4.1764352e-08 
     235 2.5454741e-10            0 9.0817427e-05 9.0817809e-05 -4.1522274e-08 
Loop time of 0.00072005 on 4 procs for 1 steps with 3210 atoms

run 1 pre no post no
Step Temp E_pair E_mol TotEng Press 
     235 2.5416179e-10            0 9.0817427e-05 9.0817808e-05 -4.1522308e-08 
     236 2.5416179e-10            0 9.0817454e-05 9.0817835e-05 -4.1199293e-08 
Loop time of 0.000786175 on 4 procs for 1 steps with 3210 atoms

run 1 pre no post no
Step Temp E_pair E_mol TotEng Press 
     236 2.5385006e-10            0 9.0817454e-05 9.0817835e-05 -4.1199321e-08 
     237 2.5385006e-10            0 9.0817479e-05 9.081786e-05 -4.0778778e-08 
Loop time of 0.0008404 on 4 procs for 1 steps with 3210 atoms

run 1 pre no post no
Step Temp E_pair E_mol TotEng Press 
     237 2.5356827e-10            0 9.0817479e-05 9.081786e-05 -4.0778804e-08 
     238 2.5356827e-10            0 9.0817504e-05 9.0817884e-05 -4.0351284e-08 
Loop time of 0.0006548 on 4 procs for 1 steps with 3210 atoms

run 1 pre no post no
Step Temp E_pair E_mol TotEng Press 
     238 2.532919e-10            0 9.0817504e-05 9.0817884e-05 -4.0351308e-08 
     239 2.532919e-10            0 9.0817528e-05 9.0817908e-05 -3.9968837e-08 
Loop time of 0.0008941 on 4 procs for 1 steps with 3210 atoms

run 1 pre no post no
Step Temp E_pair E_mol TotEng Press 
     239 2.5299172e-10            0 9.0817528e-05 9.0817907e-05 -3.9968864e-08 
     240 2.5299172e-10            0 9.0817551e-05 9.0817931e-05 -3.9671906e-08 
Loop time of 0.0031233 on 4 procs for 1 steps with 3210 atoms

run 1 pre no post no
Step Temp E_pair E_mol TotEng Press 
     240 2.5266899e-10            0 9.0817551e-05 9.081793e-05 -3.9671934e-08 
     241 2.5266899e-10            0 9.0817574e-05 9.0817953e-05 -3.9445228e-08 
Loop time of 0.00075905 on 4 procs for 1 steps with 3210 atoms

run 1 pre no post no
Step Temp E_pair E_mol TotEng Press 
     241 2.5232229e-10            0 9.0817574e-05 9.0817953e-05 -3.9445259e-08 
     242 2.5232229e-10            0 9.0817597e-05 9.0817975e-05 -3.9256236e-08 
Loop time of 0.000900425 on 4 procs for 1 steps with 3210 atoms

run 1 pre no post no
Step Temp E_pair E_mol TotEng Press 
     242 2.5196913e-10            0 9.0817597e-05 9.0817974e-05 -3.9256268e-08 
     243 2.5196913e-10            0 9.0817618e-05 9.0817996e-05 -3.9055369e-08 
Loop time of 0.00122548 on 4 procs for 1 steps with 3210 atoms

run 1 pre no post no
Step Temp E_pair E_mol TotEng Press 
     243 2.5161762e-10            0 9.0817618e-05 9.0817996e-05 -3.9055401e-08 
     244 2.5161762e-10            0 9.081764e-05 9.0818017e-05 -3.8806044e-08 
Loop time of 0.0016862 on 4 procs for 1 steps with 3210 atoms

run 1 pre no post no
Step Temp E_pair E_mol TotEng Press 
     244 2.512828e-10            0 9.081764e-05 9.0818016e-05 -3.8806074e-08 
     245 2.512828e-10            0 9.0817661e-05 9.0818038e-05 -3.8484204e-08 
Loop time of 0.00073895 on 4 procs for 1 steps with 3210 atoms

run 1 pre no post no
Step Temp E_pair E_mol TotEng Press 
     245 2.5096788e-10            0 9.0817661e-05 9.0818037e-05 -3.8484232e-08 
     246 2.5096788e-10            0 9.0817682e-05 9.0818059e-05 -3.8087164e-08 
Loop time of 0.000772775 on 4 procs for 1 steps with 3210 atoms

run 1 pre no post no
Step Temp E_pair E_mol TotEng Press 
     246 2.5067853e-10            0 9.0817682e-05 9.0818058e-05 -3.808719e-08 
     247 2.5067853e-10            0 9.0817704e-05 9.081808e-05 -3.7624165e-08 
Loop time of 0.000707175 on 4 procs for 1 steps with 3210 atoms

run 1 pre no post no
Step Temp E_pair E_mol TotEng Press 
     247 2.5041149e-10            0 9.0817704e-05 9.081808e-05 -3.7624189e-08 
     248 2.5041149e-10            0 9.0817727e-05 9.0818102e-05 -3.7114197e-08 
Loop time of 0.000693925 on 4 procs for 1 steps with 3210 atoms

run 1 pre no post no
Step Temp E_pair E_mol TotEng Press 
     248 2.5016609e-10            0 9.0817727e-05 9.0818102e-05 -3.7114219e-08 
     249 2.5016609e-10            0 9.081775e-05 9.0818125e-05 -3.6576698e-08 
Loop time of 0.000732575 on 4 procs for 1 steps with 3210 atoms

run 1 pre no post no
Step Temp E_pair E_mol TotEng Press 
     249 2.4993683e-10            0 9.081775e-05 9.0818125e-05 -3.6576718e-08 
     250 2.4993683e-10            0 9.0817774e-05 9.0818148e-05 -3.6029829e-08 
Loop time of 0.00179517 on 4 procs for 1 steps with 3210 atoms

run 1 pre no post no
Step Temp E_pair E_mol TotEng Press 
     250 2.4972132e-10            0 9.0817774e-05 9.0818148e-05 -3.6029848e-08 
     251 2.4972132e-10            0 9.0817798e-05 9.0818172e-05 -3.5486548e-08 
Loop time of 0.00070585 on 4 procs for 1 steps with 3210 atoms

run 1 pre no post no
Step Temp E_pair E_mol TotEng Press 
     251 2.4951498e-10            0 9.0817798e-05 9.0818172e-05 -3.5486566e-08 
     252 2.4951498e-10            0 9.0817822e-05 9.0818197e-05 -3.4955944e-08 
Loop time of 0.0006984 on 4 procs for 1 steps with 3210 atoms

run 1 pre no post no
Step Temp E_pair E_mol TotEng Press 
     252 2.4931604e-10            0 9.0817822e-05 9.0818196e-05 -3.4955962e-08 
     253 2.4931604e-10            0 9.0817847e-05 9.0818221e-05 -3.4443043e-08 
Loop time of 0.000813275 on 4 procs for 1 steps with 3210 atoms

run 1 pre no post no
Step Temp E_pair E_mol TotEng Press 
     253 2.4912185e-10            0 9.0817847e-05 9.0818221e-05 -3.444306e-08 
     254 2.4912185e-10            0 9.0817872e-05 9.0818246e-05 -3.395106e-08 
Loop time of 0.000712525 on 4 procs for 1 steps with 3210 atoms

run 1 pre no post no
Step Temp E_pair E_mol TotEng Press 
     254 2.4893168e-10            0 9.0817872e-05 9.0818245e-05 -3.3951077e-08 
     255 2.4893168e-10            0 9.0817897e-05 9.081827e-05 -3.3481923e-08 
Loop time of 0.0006603 on 4 procs for 1 steps with 3210 atoms

run 1 pre no post no
Step Temp E_pair E_mol TotEng Press 
     255 2.4874448e-10            0 9.0817897e-05 9.081827e-05 -3.348194e-08 
     256 2.4874448e-10            0 9.0817922e-05 9.0818295e-05 -3.3037513e-08 
Loop time of 0.00067225 on 4 procs for 1 steps with 3210 atoms

run 1 pre no post no
Step Temp E_pair E_mol TotEng Press 
     256 2.4856028e-10            0 9.0817922e-05 9.0818295e-05 -3.3037529e-08 
     257 2.4856028e-10            0 9.0817947e-05 9.0818319e-05 -3.2619563e-08 
Loop time of 0.00066125 on 4 procs for 1 steps with 3210 atoms

run 1 pre no post no
Step Temp E_pair E_mol TotEng Press 
     257 2.4837914e-10            0 9.0817947e-05 9.0818319e-05 -3.261958e-08 
     258 2.4837914e-10            0 9.0817971e-05 9.0818343e-05 -3.2229766e-08 
Loop time of 0.000714375 on 4 procs for 1 steps with 3210 atoms

run 1 pre no post no
Step Temp E_pair E_mol TotEng Press 
     258 2.482015e-10            0 9.0817971e-05 9.0818343e-05 -3.2229781e-08 
     259 2.482015e-10            0 9.0817995e-05 9.0818367e-05 -3.1869294e-08 
Loop time of 0.000738425 on 4 procs for 1 steps with 3210 atoms

run 1 pre no post no
Step Temp E_pair E_mol TotEng Press 
     259 2.4802812e-10            0 9.0817995e-05 9.0818367e-05 -3.1869309e-08 
     260 2.4802812e-10            0 9.0818019e-05 9.0818391e-05 -3.1538512e-08 
Loop time of 0.0017386 on 4 procs for 1 steps with 3210 atoms

run 1 pre no post no
Step Temp E_pair E_mol TotEng Press 
     260 2.4785959e-10            0 9.0818019e-05 9.0818391e-05 -3.1538527e-08 
     261 2.4785959e-10            0 9.0818043e-05 9.0818415e-05 -3.1236722e-08 
Loop time of 0.0008088 on 4 procs for 1 steps with 3210 atoms

run 1 pre no post no
Step Temp E_pair E_mol TotEng Press 
     261 2.4769703e-10            0 9.0818043e-05 9.0818414e-05 -3.1236736e-08 
     262 2.4769703e-10            0 9.0818066e-05 9.0818438e-05 -3.0961943e-08 
Loop time of 0.00249573 on 4 procs for 1 steps with 3210 atoms

run 1 pre no post no
Step Temp E_pair E_mol TotEng Press 
     262 2.4748509e-10            0 9.0818066e-05 9.0818438e-05 -3.0961962e-08 
     263 2.4748509e-10            0 9.0818088e-05 9.081846e-05 -3.0596231e-08 
Loop time of 0.0007228 on 4 procs for 1 steps with 3210 atoms

run 1 pre no post no
Step Temp E_pair E_mol TotEng Press 
     263 2.4732595e-10            0 9.0818088e-05 9.0818459e-05 -3.0596245e-08 
     264 2.4732595e-10            0 9.081811e-05 9.0818481e-05 -3.018576e-08 
Loop time of 0.000737275 on 4 procs for 1 steps with 3210 atoms

run 1 pre no post no
Step Temp E_pair E_mol TotEng Press 
     264 2.4720249e-10            0 9.081811e-05 9.0818481e-05 -3.0185771e-08 
     265 2.4720249e-10            0 9.0818132e-05 9.0818503e-05 -2.9766295e-08 
Loop time of 0.000802725 on 4 procs for 1 steps with 3210 atoms

run 1 pre no post no
Step Temp E_pair E_mol TotEng Press 
     265 2.4709886e-10            0 9.0818132e-05 9.0818502e-05 -2.9766304e-08 
     266 2.4709886e-10            0 9.0818154e-05 9.0818525e-05 -2.9397212e-08 
Loop time of 0.000740225 on 4 procs for 1 steps with 3210 atoms

run 1 pre no post no
Step Temp E_pair E_mol TotEng Press 
     266 2.4700367e-10            0 9.0818154e-05 9.0818524e-05 -2.939722e-08 
     267 2.4700367e-10            0 9.0818177e-05 9.0818547e-05 -2.9111081e-08 
Loop time of 0.00069375 on 4 procs for 1 steps with 3210 atoms

run 1 pre no post no
Step Temp E_pair E_mol TotEng Press 
     267 2.4690083e-10            0 9.0818177e-05 9.0818547e-05 -2.911109e-08 
     268 2.4690083e-10            0 9.0818199e-05 9.0818569e-05 -2.891665e-08 
Loop time of 0.000670275 on 4 procs for 1 steps with 3210 atoms

run 1 pre no post no
Step Temp E_pair E_mol TotEng Press 
     268 2.4678762e-10            0 9.0818199e-05 9.0818569e-05 -2.891666e-08 
     269 2.4678762e-10            0 9.0818221e-05 9.0818591e-05 -2.8792241e-08 
Loop time of 0.0007316 on 4 procs for 1 steps with 3210 atoms

run 1 pre no post no
Step Temp E_pair E_mol TotEng Press 
     269 2.4666091e-10            0 9.0818221e-05 9.0818591e-05 -2.8792253e-08 
     270 2.4666091e-10            0 9.0818243e-05 9.0818613e-05 -2.8702045e-08 
Loop time of 0.00178558 on 4 procs for 1 steps with 3210 atoms

run 1 pre no post no
Step Temp E_pair E_mol TotEng Press 
     270 2.4652703e-10            0 9.0818243e-05 9.0818612e-05 -2.8702057e-08 
     271 2.4652703e-10            0 9.0818264e-05 9.0818634e-05 -2.8606473e-08 
Loop time of 0.00103518 on 4 procs for 1 steps with 3210 atoms

run 1 pre no post no
Step Temp E_pair E_mol TotEng Press 
     271 2.4638909e-10            0 9.0818264e-05 9.0818633e-05 -2.8606485e-08 
     272 2.4638909e-10            0 9.0818285e-05 9.0818654e-05 -2.8474821e-08 
Loop time of 0.00068985 on 4 procs for 1 steps with 3210 atoms

run 1 pre no post no
Step Temp E_pair E_mol TotEng Press 
     272 2.4625418e-10            0 9.0818285e-05 9.0818654e-05 -2.8474833e-08 
     273 2.4625418e-10            0 9.0818305e-05 9.0818675e-05 -2.828995e-08 
Loop time of 0.000722625 on 4 procs for 1 steps with 3210 atoms

run 1 pre no post no
Step Temp E_pair E_mol TotEng Press 
     273 2.4612448e-10            0 9.0818305e-05 9.0818674e-05 -2.8289961e-08 
     274 2.4612448e-10            0 9.0818326e-05 9.0818695e-05 -2.8049072e-08 
Loop time of 0.0006829 on 4 procs for 1 steps with 3210 atoms

run 1 pre no post no
Step Temp E_pair E_mol TotEng Press 
     274 2.4600376e-10            0 9.0818326e-05 9.0818695e-05 -2.8049083e-08 
     275 2.4600376e-10            0 9.0818348e-05 9.0818717e-05 -2.7760498e-08 
Loop time of 0.0010125 on 4 procs for 1 steps with 3210 atoms

run 1 pre no post no
Step Temp E_pair E_mol TotEng Press 
     275 2.4589158e-10            0 9.0818348e-05 9.0818716e-05 -2.7760508e-08 
     276 2.4589158e-10            0 9.081837e-05 9.0818738e-05 -2.7438466e-08 
Loop time of 0.000738875 on 4 procs for 1 steps with 3210 atoms

run 1 pre no post no
Step Temp E_pair E_mol TotEng Press 
[...]

run 1 pre no post no
Step Temp E_pair E_mol TotEng Press 
    9939 3.1395467e-10            0 9.107395e-05 9.1074421e-05 -2.8625608e-08 
    9940 3.1395467e-10            0 9.1073932e-05 9.1074403e-05 -2.87279e-08 
Loop time of 0.0018075 on 4 procs for 1 steps with 3210 atoms

run 1 pre no post no
Step Temp E_pair E_mol TotEng Press 
    9940 3.1415812e-10            0 9.1073932e-05 9.1074403e-05 -2.8727882e-08 
    9941 3.1415812e-10            0 9.1073915e-05 9.1074386e-05 -2.8832894e-08 
Loop time of 0.00059605 on 4 procs for 1 steps with 3210 atoms

run 1 pre no post no
Step Temp E_pair E_mol TotEng Press 
    9941 3.1435676e-10            0 9.1073915e-05 9.1074386e-05 -2.8832877e-08 
    9942 3.1435676e-10            0 9.1073899e-05 9.107437e-05 -2.8938817e-08 
Loop time of 0.00190388 on 4 procs for 1 steps with 3210 atoms

run 1 pre no post no
Step Temp E_pair E_mol TotEng Press 
    9942 3.1462262e-10            0 9.1073899e-05 9.107437e-05 -2.8938793e-08 
    9943 3.1462262e-10            0 9.1073884e-05 9.1074355e-05 -2.9096912e-08 
Loop time of 0.00058235 on 4 procs for 1 steps with 3210 atoms

run 1 pre no post no
Step Temp E_pair E_mol TotEng Press 
    9943 3.1483732e-10            0 9.1073884e-05 9.1074356e-05 -2.9096893e-08 
    9944 3.1483732e-10            0 9.1073871e-05 9.1074343e-05 -2.9244841e-08 
Loop time of 0.00064445 on 4 procs for 1 steps with 3210 atoms

run 1 pre no post no
Step Temp E_pair E_mol TotEng Press 
    9944 3.1504044e-10            0 9.1073871e-05 9.1074343e-05 -2.9244823e-08 
    9945 3.1504044e-10            0 9.1073859e-05 9.1074331e-05 -2.9374791e-08 
Loop time of 0.00109645 on 4 procs for 1 steps with 3210 atoms

run 1 pre no post no
Step Temp E_pair E_mol TotEng Press 
    9945 3.1523677e-10            0 9.1073859e-05 9.1074331e-05 -2.9374773e-08 
    9946 3.1523677e-10            0 9.1073847e-05 9.107432e-05 -2.9490235e-08 
Loop time of 0.00140982 on 4 procs for 1 steps with 3210 atoms

run 1 pre no post no
Step Temp E_pair E_mol TotEng Press 
    9946 3.1542915e-10            0 9.1073847e-05 9.107432e-05 -2.9490218e-08 
    9947 3.1542915e-10            0 9.1073836e-05 9.1074309e-05 -2.9591982e-08 
Loop time of 0.00064195 on 4 procs for 1 steps with 3210 atoms

run 1 pre no post no
Step Temp E_pair E_mol TotEng Press 
    9947 3.1561797e-10            0 9.1073836e-05 9.1074309e-05 -2.9591965e-08 
    9948 3.1561797e-10            0 9.1073826e-05 9.1074299e-05 -2.9683954e-08 
Loop time of 0.0007382 on 4 procs for 1 steps with 3210 atoms

run 1 pre no post no
Step Temp E_pair E_mol TotEng Press 
    9948 3.1580321e-10            0 9.1073826e-05 9.1074299e-05 -2.9683938e-08 
    9949 3.1580321e-10            0 9.1073817e-05 9.107429e-05 -2.9769245e-08 
Loop time of 0.000798025 on 4 procs for 1 steps with 3210 atoms

run 1 pre no post no
Step Temp E_pair E_mol TotEng Press 
    9949 3.1598468e-10            0 9.1073817e-05 9.1074291e-05 -2.9769229e-08 
    9950 3.1598468e-10            0 9.1073809e-05 9.1074283e-05 -2.9852478e-08 
Loop time of 0.00179185 on 4 procs for 1 steps with 3210 atoms

run 1 pre no post no
Step Temp E_pair E_mol TotEng Press 
    9950 3.1616246e-10            0 9.1073809e-05 9.1074283e-05 -2.9852462e-08 
    9951 3.1616246e-10            0 9.1073803e-05 9.1074277e-05 -2.9935913e-08 
Loop time of 0.000572675 on 4 procs for 1 steps with 3210 atoms

run 1 pre no post no
Step Temp E_pair E_mol TotEng Press 
    9951 3.1633709e-10            0 9.1073803e-05 9.1074277e-05 -2.9935898e-08 
    9952 3.1633709e-10            0 9.1073798e-05 9.1074273e-05 -3.0021392e-08 
Loop time of 0.0006287 on 4 procs for 1 steps with 3210 atoms

run 1 pre no post no
Step Temp E_pair E_mol TotEng Press 
    9952 3.1650912e-10            0 9.1073798e-05 9.1074273e-05 -3.0021377e-08 
    9953 3.1650912e-10            0 9.1073794e-05 9.1074269e-05 -3.0108967e-08 
Loop time of 0.000596475 on 4 procs for 1 steps with 3210 atoms

run 1 pre no post no
Step Temp E_pair E_mol TotEng Press 
    9953 3.1667929e-10            0 9.1073794e-05 9.1074269e-05 -3.0108952e-08 
    9954 3.1667929e-10            0 9.1073792e-05 9.1074266e-05 -3.0199132e-08 
Loop time of 0.0005987 on 4 procs for 1 steps with 3210 atoms

run 1 pre no post no
Step Temp E_pair E_mol TotEng Press 
    9954 3.168479e-10            0 9.1073792e-05 9.1074267e-05 -3.0199117e-08 
    9955 3.168479e-10            0 9.1073789e-05 9.1074264e-05 -3.0291903e-08 
Loop time of 0.0005769 on 4 procs for 1 steps with 3210 atoms

run 1 pre no post no
Step Temp E_pair E_mol TotEng Press 
    9955 3.1701541e-10            0 9.1073789e-05 9.1074265e-05 -3.0291888e-08 
    9956 3.1701541e-10            0 9.1073788e-05 9.1074263e-05 -3.0387929e-08 
Loop time of 0.00057095 on 4 procs for 1 steps with 3210 atoms

run 1 pre no post no
Step Temp E_pair E_mol TotEng Press 
    9956 3.1718199e-10            0 9.1073788e-05 9.1074263e-05 -3.0387914e-08 
    9957 3.1718199e-10            0 9.1073787e-05 9.1074262e-05 -3.0487221e-08 
Loop time of 0.000637125 on 4 procs for 1 steps with 3210 atoms

run 1 pre no post no
Step Temp E_pair E_mol TotEng Press 
    9957 3.1734805e-10            0 9.1073787e-05 9.1074263e-05 -3.0487206e-08 
    9958 3.1734805e-10            0 9.1073786e-05 9.1074262e-05 -3.0589761e-08 
Loop time of 0.000654625 on 4 procs for 1 steps with 3210 atoms

run 1 pre no post no
Step Temp E_pair E_mol TotEng Press 
    9958 3.1751377e-10            0 9.1073786e-05 9.1074262e-05 -3.0589746e-08 
    9959 3.1751377e-10            0 9.1073786e-05 9.1074263e-05 -3.0694616e-08 
Loop time of 0.000576075 on 4 procs for 1 steps with 3210 atoms

run 1 pre no post no
Step Temp E_pair E_mol TotEng Press 
    9959 3.1767952e-10            0 9.1073786e-05 9.1074263e-05 -3.0694601e-08 
    9960 3.1767952e-10            0 9.1073787e-05 9.1074264e-05 -3.0800682e-08 
Loop time of 0.00159238 on 4 procs for 1 steps with 3210 atoms

run 1 pre no post no
Step Temp E_pair E_mol TotEng Press 
    9960 3.178454e-10            0 9.1073787e-05 9.1074264e-05 -3.0800668e-08 
    9961 3.178454e-10            0 9.1073789e-05 9.1074265e-05 -3.0906239e-08 
Loop time of 0.000591075 on 4 procs for 1 steps with 3210 atoms

run 1 pre no post no
Step Temp E_pair E_mol TotEng Press 
    9961 3.1801165e-10            0 9.1073789e-05 9.1074266e-05 -3.0906225e-08 
    9962 3.1801165e-10            0 9.1073791e-05 9.1074268e-05 -3.1009737e-08 
Loop time of 0.000752875 on 4 procs for 1 steps with 3210 atoms

run 1 pre no post no
Step Temp E_pair E_mol TotEng Press 
    9962 3.1817814e-10            0 9.1073791e-05 9.1074268e-05 -3.1009722e-08 
    9963 3.1817814e-10            0 9.1073794e-05 9.1074271e-05 -3.1109533e-08 
Loop time of 0.00057495 on 4 procs for 1 steps with 3210 atoms

run 1 pre no post no
Step Temp E_pair E_mol TotEng Press 
    9963 3.1834483e-10            0 9.1073794e-05 9.1074271e-05 -3.1109518e-08 
    9964 3.1834483e-10            0 9.1073797e-05 9.1074275e-05 -3.1204515e-08 
Loop time of 0.000603975 on 4 procs for 1 steps with 3210 atoms

run 1 pre no post no
Step Temp E_pair E_mol TotEng Press 
    9964 3.185114e-10            0 9.1073797e-05 9.1074275e-05 -3.12045e-08 
    9965 3.185114e-10            0 9.1073802e-05 9.1074279e-05 -3.1293813e-08 
Loop time of 0.000575625 on 4 procs for 1 steps with 3210 atoms

run 1 pre no post no
Step Temp E_pair E_mol TotEng Press 
    9965 3.1867767e-10            0 9.1073802e-05 9.107428e-05 -3.1293798e-08 
    9966 3.1867767e-10            0 9.1073807e-05 9.1074284e-05 -3.1377229e-08 
Loop time of 0.000583725 on 4 procs for 1 steps with 3210 atoms

run 1 pre no post no
Step Temp E_pair E_mol TotEng Press 
    9966 3.1884318e-10            0 9.1073807e-05 9.1074285e-05 -3.1377215e-08 
    9967 3.1884318e-10            0 9.1073812e-05 9.107429e-05 -3.1454896e-08 
Loop time of 0.0021009 on 4 procs for 1 steps with 3210 atoms

run 1 pre no post no
Step Temp E_pair E_mol TotEng Press 
    9967 3.1897657e-10            0 9.1073812e-05 9.107429e-05 -3.1454885e-08 
    9968 3.1897657e-10            0 9.107382e-05 9.1074299e-05 -3.1616373e-08 
Loop time of 0.000580725 on 4 procs for 1 steps with 3210 atoms

run 1 pre no post no
Step Temp E_pair E_mol TotEng Press 
    9968 3.1915998e-10            0 9.107382e-05 9.1074299e-05 -3.1616357e-08 
    9969 3.1915998e-10            0 9.107383e-05 9.1074309e-05 -3.1851748e-08 
Loop time of 0.0009494 on 4 procs for 1 steps with 3210 atoms

run 1 pre no post no
Step Temp E_pair E_mol TotEng Press 
    9969 3.1935387e-10            0 9.107383e-05 9.1074309e-05 -3.1851731e-08 
    9970 3.1935387e-10            0 9.1073843e-05 9.1074321e-05 -3.2102213e-08 
Loop time of 0.00194675 on 4 procs for 1 steps with 3210 atoms

run 1 pre no post no
Step Temp E_pair E_mol TotEng Press 
    9970 3.1953592e-10            0 9.1073843e-05 9.1074322e-05 -3.2102197e-08 
    9971 3.1953592e-10            0 9.1073856e-05 9.1074336e-05 -3.2326446e-08 
Loop time of 0.0006043 on 4 procs for 1 steps with 3210 atoms

run 1 pre no post no
Step Temp E_pair E_mol TotEng Press 
    9971 3.197044e-10            0 9.1073856e-05 9.1074336e-05 -3.2326431e-08 
    9972 3.197044e-10            0 9.1073873e-05 9.1074352e-05 -3.250328e-08 
Loop time of 0.00060365 on 4 procs for 1 steps with 3210 atoms

run 1 pre no post no
Step Temp E_pair E_mol TotEng Press 
    9972 3.1985482e-10            0 9.1073873e-05 9.1074352e-05 -3.2503267e-08 
    9973 3.1985482e-10            0 9.107389e-05 9.107437e-05 -3.2631481e-08 
Loop time of 0.0013178 on 4 procs for 1 steps with 3210 atoms

run 1 pre no post no
Step Temp E_pair E_mol TotEng Press 
    9973 3.1999529e-10            0 9.107389e-05 9.107437e-05 -3.2631468e-08 
    9974 3.1999529e-10            0 9.107391e-05 9.107439e-05 -3.2720289e-08 
Loop time of 0.00069775 on 4 procs for 1 steps with 3210 atoms

run 1 pre no post no
Step Temp E_pair E_mol TotEng Press 
    9974 3.201276e-10            0 9.107391e-05 9.107439e-05 -3.2720277e-08 
    9975 3.201276e-10            0 9.1073931e-05 9.1074411e-05 -3.2781638e-08 
Loop time of 0.000609925 on 4 procs for 1 steps with 3210 atoms

run 1 pre no post no
Step Temp E_pair E_mol TotEng Press 
    9975 3.202588e-10            0 9.1073931e-05 9.1074411e-05 -3.2781626e-08 
    9976 3.202588e-10            0 9.1073953e-05 9.1074433e-05 -3.2829317e-08 
Loop time of 0.00056325 on 4 procs for 1 steps with 3210 atoms

run 1 pre no post no
Step Temp E_pair E_mol TotEng Press 
    9976 3.2038822e-10            0 9.1073953e-05 9.1074434e-05 -3.2829305e-08 
    9977 3.2038822e-10            0 9.1073976e-05 9.1074456e-05 -3.2874356e-08 
Loop time of 0.000611725 on 4 procs for 1 steps with 3210 atoms

run 1 pre no post no
Step Temp E_pair E_mol TotEng Press 
    9977 3.205184e-10            0 9.1073976e-05 9.1074457e-05 -3.2874344e-08 
    9978 3.205184e-10            0 9.1073999e-05 9.107448e-05 -3.2926745e-08 
Loop time of 0.00056105 on 4 procs for 1 steps with 3210 atoms

run 1 pre no post no
Step Temp E_pair E_mol TotEng Press 
    9978 3.206464e-10            0 9.1073999e-05 9.107448e-05 -3.2926734e-08 
    9979 3.206464e-10            0 9.1074023e-05 9.1074504e-05 -3.2992337e-08 
Loop time of 0.00062285 on 4 procs for 1 steps with 3210 atoms

run 1 pre no post no
Step Temp E_pair E_mol TotEng Press 
    9979 3.2077289e-10            0 9.1074023e-05 9.1074504e-05 -3.2992326e-08 
    9980 3.2077289e-10            0 9.1074047e-05 9.1074529e-05 -3.3075406e-08 
Loop time of 0.00155148 on 4 procs for 1 steps with 3210 atoms

run 1 pre no post no
Step Temp E_pair E_mol TotEng Press 
    9980 3.2089544e-10            0 9.1074047e-05 9.1074529e-05 -3.3075395e-08 
    9981 3.2089544e-10            0 9.1074072e-05 9.1074554e-05 -3.3177031e-08 
Loop time of 0.00061155 on 4 procs for 1 steps with 3210 atoms

run 1 pre no post no
Step Temp E_pair E_mol TotEng Press 
    9981 3.2101522e-10            0 9.1074072e-05 9.1074554e-05 -3.317702e-08 
    9982 3.2101522e-10            0 9.1074098e-05 9.1074579e-05 -3.3297649e-08 
Loop time of 0.000679075 on 4 procs for 1 steps with 3210 atoms

run 1 pre no post no
Step Temp E_pair E_mol TotEng Press 
    9982 3.2113129e-10            0 9.1074098e-05 9.1074579e-05 -3.3297639e-08 
    9983 3.2113129e-10            0 9.1074123e-05 9.1074605e-05 -3.3435803e-08 
Loop time of 0.00056995 on 4 procs for 1 steps with 3210 atoms

run 1 pre no post no
Step Temp E_pair E_mol TotEng Press 
    9983 3.2124553e-10            0 9.1074123e-05 9.1074605e-05 -3.3435792e-08 
    9984 3.2124553e-10            0 9.1074149e-05 9.1074631e-05 -3.3589824e-08 
Loop time of 0.00056355 on 4 procs for 1 steps with 3210 atoms

run 1 pre no post no
Step Temp E_pair E_mol TotEng Press 
    9984 3.2135786e-10            0 9.1074149e-05 9.1074631e-05 -3.3589814e-08 
    9985 3.2135786e-10            0 9.1074175e-05 9.1074657e-05 -3.3756649e-08 
Loop time of 0.0005538 on 4 procs for 1 steps with 3210 atoms

run 1 pre no post no
Step Temp E_pair E_mol TotEng Press 
    9985 3.2147012e-10            0 9.1074175e-05 9.1074657e-05 -3.3756638e-08 
    9986 3.2147012e-10            0 9.1074202e-05 9.1074684e-05 -3.393291e-08 
Loop time of 0.000553675 on 4 procs for 1 steps with 3210 atoms

run 1 pre no post no
Step Temp E_pair E_mol TotEng Press 
    9986 3.2158226e-10            0 9.1074202e-05 9.1074684e-05 -3.39329e-08 
    9987 3.2158226e-10            0 9.1074228e-05 9.1074711e-05 -3.4114184e-08 
Loop time of 0.0005669 on 4 procs for 1 steps with 3210 atoms

run 1 pre no post no
Step Temp E_pair E_mol TotEng Press 
    9987 3.2169558e-10            0 9.1074228e-05 9.1074711e-05 -3.4114174e-08 
    9988 3.2169558e-10            0 9.1074255e-05 9.1074738e-05 -3.4296041e-08 
Loop time of 0.00057105 on 4 procs for 1 steps with 3210 atoms

run 1 pre no post no
Step Temp E_pair E_mol TotEng Press 
    9988 3.2180981e-10            0 9.1074255e-05 9.1074738e-05 -3.4296031e-08 
    9989 3.2180981e-10            0 9.1074282e-05 9.1074765e-05 -3.4473839e-08 
Loop time of 0.00055945 on 4 procs for 1 steps with 3210 atoms

run 1 pre no post no
Step Temp E_pair E_mol TotEng Press 
    9989 3.2192573e-10            0 9.1074282e-05 9.1074765e-05 -3.4473829e-08 
    9990 3.2192573e-10            0 9.1074309e-05 9.1074792e-05 -3.4643567e-08 
Loop time of 0.00164448 on 4 procs for 1 steps with 3210 atoms

run 1 pre no post no
Step Temp E_pair E_mol TotEng Press 
    9990 3.2204295e-10            0 9.1074309e-05 9.1074792e-05 -3.4643557e-08 
    9991 3.2204295e-10            0 9.1074337e-05 9.107482e-05 -3.480176e-08 
Loop time of 0.000663525 on 4 procs for 1 steps with 3210 atoms

run 1 pre no post no
Step Temp E_pair E_mol TotEng Press 
    9991 3.2216202e-10            0 9.1074337e-05 9.107482e-05 -3.4801749e-08 
    9992 3.2216202e-10            0 9.1074364e-05 9.1074847e-05 -3.4946047e-08 
Loop time of 0.00187342 on 4 procs for 1 steps with 3210 atoms

run 1 pre no post no
Step Temp E_pair E_mol TotEng Press 
    9992 3.2175387e-10            0 9.1074364e-05 9.1074847e-05 -3.4946084e-08 
    9993 3.2175387e-10            0 9.1074392e-05 9.1074875e-05 -3.4914666e-08 
Loop time of 0.0005846 on 4 procs for 1 steps with 3210 atoms

run 1 pre no post no
Step Temp E_pair E_mol TotEng Press 
    9993 3.2164168e-10            0 9.1074392e-05 9.1074874e-05 -3.4914676e-08 
    9994 3.2164168e-10            0 9.1074415e-05 9.1074897e-05 -3.4862888e-08 
Loop time of 0.00055665 on 4 procs for 1 steps with 3210 atoms

run 1 pre no post no
Step Temp E_pair E_mol TotEng Press 
    9994 3.2156571e-10            0 9.1074415e-05 9.1074897e-05 -3.4862895e-08 
    9995 3.2156571e-10            0 9.1074434e-05 9.1074916e-05 -3.4798472e-08 
Loop time of 0.000586675 on 4 procs for 1 steps with 3210 atoms

run 1 pre no post no
Step Temp E_pair E_mol TotEng Press 
    9995 3.2150127e-10            0 9.1074434e-05 9.1074916e-05 -3.4798478e-08 
    9996 3.2150127e-10            0 9.1074449e-05 9.1074931e-05 -3.4731222e-08 
Loop time of 0.0005992 on 4 procs for 1 steps with 3210 atoms

run 1 pre no post no
Step Temp E_pair E_mol TotEng Press 
    9996 3.2144756e-10            0 9.1074449e-05 9.1074931e-05 -3.4731226e-08 
    9997 3.2144756e-10            0 9.1074464e-05 9.1074946e-05 -3.4663016e-08 
Loop time of 0.0005713 on 4 procs for 1 steps with 3210 atoms

run 1 pre no post no
Step Temp E_pair E_mol TotEng Press 
    9997 3.2140078e-10            0 9.1074464e-05 9.1074946e-05 -3.466302e-08 
    9998 3.2140078e-10            0 9.1074479e-05 9.1074961e-05 -3.4595256e-08 
Loop time of 0.000602675 on 4 procs for 1 steps with 3210 atoms

run 1 pre no post no
Step Temp E_pair E_mol TotEng Press 
    9998 3.2136699e-10            0 9.1074479e-05 9.1074961e-05 -3.4595259e-08 
    9999 3.2136699e-10            0 9.1074495e-05 9.1074977e-05 -3.4525245e-08 
Loop time of 0.0005552 on 4 procs for 1 steps with 3210 atoms

run 1 pre no post no
Step Temp E_pair E_mol TotEng Press 
    9999 3.2134521e-10            0 9.1074495e-05 9.1074977e-05 -3.4525247e-08 
   10000 3.2134521e-10            0 9.1074511e-05 9.1074993e-05 -3.445271e-08 
Loop time of 0.001632 on 4 procs for 1 steps with 3210 atoms

run 1 pre no post no
Step Temp E_pair E_mol TotEng Press 
   10000 3.213376e-10            0 9.1074511e-05 9.1074993e-05 -3.4452711e-08 
   10001 3.213376e-10            0 9.1074528e-05 9.1075009e-05 -3.4379496e-08 
Loop time of 0.0005821 on 4 procs for 1 steps with 3210 atoms

run 1 pre no post no
Step Temp E_pair E_mol TotEng Press 
   10001 3.213402e-10            0 9.1074528e-05 9.1075009e-05 -3.4379495e-08 
   10002 3.213402e-10            0 9.1074544e-05 9.1075026e-05 -3.4311489e-08 
Loop time of 0.000616025 on 4 procs for 1 steps with 3210 atoms

run 1 pre no post no
Step Temp E_pair E_mol TotEng Press 
   10002 3.2135158e-10            0 9.1074544e-05 9.1075026e-05 -3.4311488e-08 
   10003 3.2135158e-10            0 9.1074561e-05 9.1075043e-05 -3.4255317e-08 
Loop time of 0.000590325 on 4 procs for 1 steps with 3210 atoms

run 1 pre no post no
Step Temp E_pair E_mol TotEng Press 
   10003 3.213673e-10            0 9.1074561e-05 9.1075043e-05 -3.4255315e-08 
   10004 3.213673e-10            0 9.1074579e-05 9.1075061e-05 -3.4217655e-08 
Loop time of 0.000560275 on 4 procs for 1 steps with 3210 atoms

run 1 pre no post no
Step Temp E_pair E_mol TotEng Press 
   10004 3.2138602e-10            0 9.1074579e-05 9.1075061e-05 -3.4217654e-08 
   10005 3.2138602e-10            0 9.1074596e-05 9.1075078e-05 -3.4202525e-08 
Loop time of 0.000681875 on 4 procs for 1 steps with 3210 atoms

run 1 pre no post no
Step Temp E_pair E_mol TotEng Press 
   10005 3.2140528e-10            0 9.1074596e-05 9.1075078e-05 -3.4202524e-08 
   10006 3.2140528e-10            0 9.1074614e-05 9.1075096e-05 -3.4211952e-08 
Loop time of 0.0005788 on 4 procs for 1 steps with 3210 atoms

run 1 pre no post no
Step Temp E_pair E_mol TotEng Press 
   10006 3.2142537e-10            0 9.1074614e-05 9.1075096e-05 -3.421195e-08 
   10007 3.2142537e-10            0 9.1074632e-05 9.1075114e-05 -3.424532e-08 
Loop time of 0.00055295 on 4 procs for 1 steps with 3210 atoms

run 1 pre no post no
Step Temp E_pair E_mol TotEng Press 
   10007 3.2144589e-10            0 9.1074632e-05 9.1075114e-05 -3.4245318e-08 
   10008 3.2144589e-10            0 9.107465e-05 9.1075132e-05 -3.4301009e-08 
Loop time of 0.000582925 on 4 procs for 1 steps with 3210 atoms

run 1 pre no post no
Step Temp E_pair E_mol TotEng Press 
   10008 3.2146829e-10            0 9.107465e-05 9.1075132e-05 -3.4301007e-08 
   10009 3.2146829e-10            0 9.1074669e-05 9.1075151e-05 -3.4376143e-08 
Loop time of 0.000582575 on 4 procs for 1 steps with 3210 atoms

run 1 pre no post no
Step Temp E_pair E_mol TotEng Press 
   10009 3.2149317e-10            0 9.1074669e-05 9.1075151e-05 -3.4376141e-08 
   10010 3.2149317e-10            0 9.1074688e-05 9.107517e-05 -3.4467887e-08 
Loop time of 0.00183462 on 4 procs for 1 steps with 3210 atoms

