LAMMPS (8 Apr 2021)
Lattice spacing in x,y,z = 1.0000000 1.0000000 1.0000000
Reading data file ...
  orthogonal box = (0.0000000 0.0000000 0.0000000) to (20.000000 20.000000 80.000000)
  1 by 2 by 6 MPI processor grid
  reading atoms ...
  684 atoms
Finding 1-2 1-3 1-4 neighbors ...
  special bond factors lj:    0        0        0       
  special bond factors coul:  0        0        0       
     0 = max # of 1-2 neighbors
     0 = max # of 1-3 neighbors
     0 = max # of 1-4 neighbors
   201 = max # of special neighbors
  special bonds CPU = 0.004 seconds
  read_data CPU = 0.050 seconds
652 atoms in group cells
32 atoms in group wall_plt
WARNING: Fix bond/create is used multiple times  or with fix bond/break - may not work as expected (../fix_bond_create.cpp:253)
WARNING: Fix bond/create is used multiple times  or with fix bond/break - may not work as expected (../fix_bond_create.cpp:253)
WARNING: Fix bond/create is used multiple times  or with fix bond/break - may not work as expected (../fix_bond_create.cpp:253)
WARNING: One or more atoms are time integrated more than once (../modify.cpp:287)
Neighbor list info ...
  update every 1 steps, delay 0 steps, check no
  max neighbors/atom: 2000, page size: 100000
  master list distance cutoff = 3
  ghost atom cutoff = 12
  binsize = 1.5, bins = 14 14 54
  4 neighbor lists, perpetual/occasional/extra = 1 3 0
  (1) pair morse, perpetual
      attributes: half, newton on
      pair build: half/bin/newton
      stencil: half/bin/3d
      bin: standard
  (2) fix bond/create, occasional, copy from (1)
      attributes: half, newton on
      pair build: copy
      stencil: none
      bin: none
  (3) fix bond/create, occasional, copy from (1)
      attributes: half, newton on
      pair build: copy
      stencil: none
      bin: none
  (4) fix bond/create, occasional, copy from (1)
      attributes: half, newton on
      pair build: copy
      stencil: none
      bin: none
Setting up Verlet run ...
  Unit style    : lj
  Current step  : 0
  Time step     : 1
Per MPI rank memory allocation (min/avg/max) = 22.16 | 23.45 | 24.22 Mbytes
Step Temp E_pair E_mol TotEng Press 
       0            0            0            0            0            0 
       1 4.2162571e-09 -0.00085526316            0 -0.00085525684 7.3385718e-10 
Loop time of 0.000567953 on 12 procs for 1 steps with 684 atoms

Performance: 152125319.639 tau/day, 1760.710 timesteps/s
66.4% CPU use with 12 MPI tasks x no OpenMP threads

MPI task timing breakdown:
Section |  min time  |  avg time  |  max time  |%varavg| %total
---------------------------------------------------------------
Pair    | 7.1526e-07 | 2.9286e-05 | 6.7472e-05 |   0.0 |  5.16
Bond    | 2.3842e-07 | 3.775e-07  | 7.1526e-07 |   0.0 |  0.07
Neigh   | 9.5606e-05 | 0.00012436 | 0.00016165 |   0.0 | 21.90
Comm    | 7.7963e-05 | 0.00015356 | 0.00023293 |   0.0 | 27.04
Output  | 3.4809e-05 | 8.1539e-05 | 0.00013781 |   0.0 | 14.36
Modify  | 0.00012994 | 0.00016824 | 0.00021648 |   0.0 | 29.62
Other   |            | 1.059e-05  |            |       |  1.86

Nlocal:        57.0000 ave         204 max           0 min
Histogram: 5 1 1 2 0 1 1 0 0 1
Nghost:        262.167 ave         545 max          24 min
Histogram: 2 1 1 2 0 0 3 1 1 1
Neighs:        289.417 ave        1200 max           0 min
Histogram: 6 1 2 0 1 0 1 0 0 1

Total # of neighbors = 3473
Ave neighs/atom = 5.0774854
Ave special neighs/atom = 0.0000000
Neighbor list builds = 1
Dangerous builds not checked
Nx,Ny,Nz 21 21 81
 z 0 proc 0
lammps domain 80 lo-hi in z 0 13.3333
 z 1 proc 14
lammps domain 80 lo-hi in z 0 13.3333
 z 2 proc 27
lammps domain 80 lo-hi in z 0 13.3333
 z 3 proc 41
lammps domain 80 lo-hi in z 0 13.3333
 z 4 proc 54
lammps domain 80 lo-hi in z 0 13.3333
 z 5 proc 68
lammps domain 80 lo-hi in z 0 13.3333
 z 6 proc 81
lammps domain 80 lo-hi in z 0 13.3333
dx 1 dt  0.00075 tau 0.95
Step Temp E_pair E_mol TotEng Press 
       1 4.2162571e-09 -0.00085526316            0 -0.00085525684 7.3385718e-10 
       2 1.2007855e-08 -0.0009122807            0 -0.00091226271 2.0087509e-09 
Loop time of 0.000652552 on 12 procs for 1 steps with 684 atoms

Step Temp E_pair E_mol TotEng Press 
       2 1.2007855e-08 -0.0009122807            0 -0.00091226271 2.0087509e-09 
       3 2.1175416e-08 -0.00089035085            0 -0.00089031914 3.7973662e-09 
Loop time of 0.000299513 on 12 procs for 1 steps with 684 atoms

Step Temp E_pair E_mol TotEng Press 
       3 2.1175416e-08 -0.00089035085            0 -0.00089031914 3.7973662e-09 
       4 5.4300652e-08 -0.00088011691            0 -0.00088003558 6.0251517e-09 
Loop time of 0.000278294 on 12 procs for 1 steps with 684 atoms

Step Temp E_pair E_mol TotEng Press 
       4 5.4300652e-08 -0.00088011691            0 -0.00088003558 6.0251517e-09 
       5 9.3415154e-08 -0.00085526307            0 -0.00085512315 8.2456515e-09 
Loop time of 0.000276128 on 12 procs for 1 steps with 684 atoms

Step Temp E_pair E_mol TotEng Press 
       5 9.3415154e-08 -0.00085526307            0 -0.00085512315 8.2456515e-09 
       6 1.2004437e-07 -0.000859649            0 -0.0008594692 1.0024904e-08 
Loop time of 0.000270625 on 12 procs for 1 steps with 684 atoms

Step Temp E_pair E_mol TotEng Press 
       6 1.2004437e-07 -0.000859649            0 -0.0008594692 1.0024904e-08 
       7 1.3657698e-07 -0.00085818698            0 -0.00085798241 1.1374175e-08 
Loop time of 0.00029858 on 12 procs for 1 steps with 684 atoms

Step Temp E_pair E_mol TotEng Press 
       7 1.3657698e-07 -0.00085818698            0 -0.00085798241 1.1374175e-08 
       8 1.4612569e-07 -0.00085526296            0 -0.00085504409 1.2542533e-08 
Loop time of 0.000272989 on 12 procs for 1 steps with 684 atoms

Step Temp E_pair E_mol TotEng Press 
       8 1.4612569e-07 -0.00085526296            0 -0.00085504409 1.2542533e-08 
       9 1.4914505e-07 -0.00085087695            0 -0.00085065356 1.3582275e-08 
Loop time of 0.000277758 on 12 procs for 1 steps with 684 atoms

Step Temp E_pair E_mol TotEng Press 
       9 1.4914505e-07 -0.00085087695            0 -0.00085065356 1.3582275e-08 
      10 1.5163504e-07 -0.00085380088            0 -0.00085357376 1.4504773e-08 
Loop time of 0.00147444 on 12 procs for 1 steps with 684 atoms

Step Temp E_pair E_mol TotEng Press 
      10 1.5163504e-07 -0.00085380088            0 -0.00085357376 1.4504773e-08 
      11 1.5288843e-07 -0.0008698827            0 -0.00086965371 1.5497242e-08 
Loop time of 0.000297368 on 12 procs for 1 steps with 684 atoms

Saving VTK file...
Step Temp E_pair E_mol TotEng Press 
      11 1.5288843e-07 -0.0008698827            0 -0.00086965371 1.5497242e-08 
      12 1.5266761e-07 -0.00086257271            0 -0.00086234405 1.6307015e-08 
Loop time of 0.000291983 on 12 procs for 1 steps with 684 atoms

Step Temp E_pair E_mol TotEng Press 
      12 1.5266761e-07 -0.00086257271            0 -0.00086234405 1.6307015e-08 
      13 1.5232596e-07 -0.00085526272            0 -0.00085503457 1.7167329e-08 
Loop time of 0.00028199 on 12 procs for 1 steps with 684 atoms

Step Temp E_pair E_mol TotEng Press 
      13 1.5232596e-07 -0.00085526272            0 -0.00085503457 1.7167329e-08 
      14 1.5146241e-07 -0.00084795273            0 -0.00084772587 1.7957795e-08 
Loop time of 0.000300785 on 12 procs for 1 steps with 684 atoms

Step Temp E_pair E_mol TotEng Press 
      14 1.5146241e-07 -0.00084795273            0 -0.00084772587 1.7957795e-08 
      15 1.5076772e-07 -0.00085087666            0 -0.00085065084 1.8634251e-08 
Loop time of 0.000277082 on 12 procs for 1 steps with 684 atoms

Step Temp E_pair E_mol TotEng Press 
      15 1.5076772e-07 -0.00085087666            0 -0.00085065084 1.8634251e-08 
      16 1.5104116e-07 -0.00087134444            0 -0.00087111821 1.9370315e-08 
Loop time of 0.000274618 on 12 procs for 1 steps with 684 atoms

Step Temp E_pair E_mol TotEng Press 
      16 1.5104116e-07 -0.00087134444            0 -0.00087111821 1.9370315e-08 
      17 1.5197237e-07 -0.00087134439            0 -0.00087111677 2.0064642e-08 
Loop time of 0.000268499 on 12 procs for 1 steps with 684 atoms

Step Temp E_pair E_mol TotEng Press 
      17 1.5197237e-07 -0.00087134439            0 -0.00087111677 2.0064642e-08 
      18 1.5148807e-07 -0.00088742621            0 -0.00088719931 2.0653218e-08 
Loop time of 0.00026979 on 12 procs for 1 steps with 684 atoms

Step Temp E_pair E_mol TotEng Press 
      18 1.5148807e-07 -0.00088742621            0 -0.00088719931 2.0653218e-08 
      19 1.5109314e-07 -0.00087865424            0 -0.00087842793 2.1312591e-08 
Loop time of 0.000276307 on 12 procs for 1 steps with 684 atoms

Step Temp E_pair E_mol TotEng Press 
      19 1.5109314e-07 -0.00087865424            0 -0.00087842793 2.1312591e-08 
      20 1.5170385e-07 -0.0008888881            0 -0.00088866088 2.1998012e-08 
Loop time of 0.000945787 on 12 procs for 1 steps with 684 atoms

Step Temp E_pair E_mol TotEng Press 
      20 1.5170385e-07 -0.0008888881            0 -0.00088866088 2.1998012e-08 
      21 1.5193722e-07 -0.00089181202            0 -0.00089158445 2.2581647e-08 
Loop time of 0.000283877 on 12 procs for 1 steps with 684 atoms

Saving VTK file...
Step Temp E_pair E_mol TotEng Press 
      21 1.5193722e-07 -0.00089181202            0 -0.00089158445 2.2581647e-08 
      22 1.5101315e-07 -0.00089473594            0 -0.00089450975 2.3217534e-08 
Loop time of 0.000283082 on 12 procs for 1 steps with 684 atoms

Step Temp E_pair E_mol TotEng Press 
      22 1.5101315e-07 -0.00089473594            0 -0.00089450975 2.3217534e-08 
      23 1.5049961e-07 -0.00088888794            0 -0.00088866252 2.3801718e-08 
Loop time of 0.000261148 on 12 procs for 1 steps with 684 atoms

Step Temp E_pair E_mol TotEng Press 
      23 1.5049961e-07 -0.00088888794            0 -0.00088866252 2.3801718e-08 
      24 1.5092678e-07 -0.00088011597            0 -0.00087988991 2.4267434e-08 
Loop time of 0.000279268 on 12 procs for 1 steps with 684 atoms

Step Temp E_pair E_mol TotEng Press 
      24 1.5092678e-07 -0.00088011597            0 -0.00087988991 2.4267434e-08 
      25 1.500329e-07 -0.00088450189            0 -0.00088427717 2.4778466e-08 
Loop time of 0.000270764 on 12 procs for 1 steps with 684 atoms

Step Temp E_pair E_mol TotEng Press 
      25 1.500329e-07 -0.00088450189            0 -0.00088427717 2.4778466e-08 
      26 1.5026671e-07 -0.00088450185            0 -0.00088427678 2.5292662e-08 
Loop time of 0.000269969 on 12 procs for 1 steps with 684 atoms

Step Temp E_pair E_mol TotEng Press 
      26 1.5026671e-07 -0.00088450185            0 -0.00088427678 2.5292662e-08 
      27 1.5016657e-07 -0.00089034977            0 -0.00089012485 2.5676996e-08 
Loop time of 0.000265598 on 12 procs for 1 steps with 684 atoms

Step Temp E_pair E_mol TotEng Press 
      27 1.5016657e-07 -0.00089034977            0 -0.00089012485 2.5676996e-08 
      28 1.4792571e-07 -0.00087719183            0 -0.00087697027 2.6029793e-08 
Loop time of 0.000281433 on 12 procs for 1 steps with 684 atoms

Step Temp E_pair E_mol TotEng Press 
      28 1.4792571e-07 -0.00087719183            0 -0.00087697027 2.6029793e-08 
      29 1.4751205e-07 -0.00087719179            0 -0.00087697084 2.651305e-08 
Loop time of 0.000300884 on 12 procs for 1 steps with 684 atoms

Step Temp E_pair E_mol TotEng Press 
      29 1.4751205e-07 -0.00087719179            0 -0.00087697084 2.651305e-08 
      30 1.4975395e-07 -0.00088450168            0 -0.00088427738 2.7057126e-08 
Loop time of 0.000962675 on 12 procs for 1 steps with 684 atoms

Step Temp E_pair E_mol TotEng Press 
      30 1.4975395e-07 -0.00088450168            0 -0.00088427738 2.7057126e-08 
      31 1.5010522e-07 -0.00089034958            0 -0.00089012476 2.7462016e-08 
Loop time of 0.000267526 on 12 procs for 1 steps with 684 atoms

Saving VTK file...
Step Temp E_pair E_mol TotEng Press 
      31 1.5010522e-07 -0.00089034958            0 -0.00089012476 2.7462016e-08 
      32 1.4867245e-07 -0.00089034953            0 -0.00089012685 2.7873624e-08 
Loop time of 0.00027742 on 12 procs for 1 steps with 684 atoms

Step Temp E_pair E_mol TotEng Press 
      32 1.4867245e-07 -0.00089034953            0 -0.00089012685 2.7873624e-08 
      33 1.4853757e-07 -0.00086841965            0 -0.00086819717 2.8342284e-08 
Loop time of 0.000272989 on 12 procs for 1 steps with 684 atoms

Step Temp E_pair E_mol TotEng Press 
      33 1.4853757e-07 -0.00086841965            0 -0.00086819717 2.8342284e-08 
      34 1.4833412e-07 -0.00087280557            0 -0.00087258339 2.8731894e-08 
Loop time of 0.000266751 on 12 procs for 1 steps with 684 atoms

Step Temp E_pair E_mol TotEng Press 
      34 1.4833412e-07 -0.00087280557            0 -0.00087258339 2.8731894e-08 
      35 1.4565769e-07 -0.00088742541            0 -0.00088720724 2.9084897e-08 
Loop time of 0.00028348 on 12 procs for 1 steps with 684 atoms

Step Temp E_pair E_mol TotEng Press 
      35 1.4565769e-07 -0.00088742541            0 -0.00088720724 2.9084897e-08 
      36 1.4490903e-07 -0.00088157742            0 -0.00088136037 2.9400708e-08 
Loop time of 0.000258545 on 12 procs for 1 steps with 684 atoms

Step Temp E_pair E_mol TotEng Press 
      36 1.4490903e-07 -0.00088157742            0 -0.00088136037 2.9400708e-08 
      37 1.4641133e-07 -0.00088888732            0 -0.00088866802 2.9804508e-08 
Loop time of 0.000282983 on 12 procs for 1 steps with 684 atoms

Step Temp E_pair E_mol TotEng Press 
      37 1.4641133e-07 -0.00088888732            0 -0.00088866802 2.9804508e-08 
      38 1.4722701e-07 -0.0008976592            0 -0.00089743868 3.0190369e-08 
Loop time of 0.000282745 on 12 procs for 1 steps with 684 atoms

Step Temp E_pair E_mol TotEng Press 
      38 1.4722701e-07 -0.0008976592            0 -0.00089743868 3.0190369e-08 
      39 1.4663563e-07 -0.0008932732            0 -0.00089305357 3.0477481e-08 
Loop time of 0.000283023 on 12 procs for 1 steps with 684 atoms

Step Temp E_pair E_mol TotEng Press 
      39 1.4663563e-07 -0.0008932732            0 -0.00089305357 3.0477481e-08 
      40 1.4549635e-07 -0.00089619715            0 -0.00089597923 3.0705721e-08 
Loop time of 0.00128247 on 12 procs for 1 steps with 684 atoms

Step Temp E_pair E_mol TotEng Press 
      40 1.4549635e-07 -0.00089619715            0 -0.00089597923 3.0705721e-08 
      41 1.4777752e-07 -0.00089473514            0 -0.00089451379 3.0950346e-08 
Loop time of 0.000271817 on 12 procs for 1 steps with 684 atoms

Saving VTK file...
Step Temp E_pair E_mol TotEng Press 
      41 1.4777752e-07 -0.00089473514            0 -0.00089451379 3.0950346e-08 
      42 1.5072368e-07 -0.00089327312            0 -0.00089304736 3.1193195e-08 
Loop time of 0.000283619 on 12 procs for 1 steps with 684 atoms

Step Temp E_pair E_mol TotEng Press 
      42 1.5072368e-07 -0.00089327312            0 -0.00089304736 3.1193195e-08 
      43 1.5080437e-07 -0.00089181109            0 -0.00089158521 3.1492434e-08 
Loop time of 0.000268459 on 12 procs for 1 steps with 684 atoms

Step Temp E_pair E_mol TotEng Press 
      43 1.5080437e-07 -0.00089181109            0 -0.00089158521 3.1492434e-08 
      44 1.4990855e-07 -0.00089034905            0 -0.00089012452 3.1856638e-08 
Loop time of 0.000267406 on 12 procs for 1 steps with 684 atoms

Step Temp E_pair E_mol TotEng Press 
      44 1.4990855e-07 -0.00089034905            0 -0.00089012452 3.1856638e-08 
      45 1.4993835e-07 -0.00088303906            0 -0.00088281448 3.2255442e-08 
Loop time of 0.000280678 on 12 procs for 1 steps with 684 atoms

Step Temp E_pair E_mol TotEng Press 
      45 1.4993835e-07 -0.00088303906            0 -0.00088281448 3.2255442e-08 
      46 1.5087248e-07 -0.00088303901            0 -0.00088281303 3.2706845e-08 
Loop time of 0.000286082 on 12 procs for 1 steps with 684 atoms

Step Temp E_pair E_mol TotEng Press 
      46 1.5087248e-07 -0.00088303901            0 -0.00088281303 3.2706845e-08 
      47 1.5197585e-07 -0.00088596294            0 -0.00088573531 3.3150956e-08 
Loop time of 0.000259817 on 12 procs for 1 steps with 684 atoms

Step Temp E_pair E_mol TotEng Press 
      47 1.5197585e-07 -0.00088596294            0 -0.00088573531 3.3150956e-08 
      48 1.5260647e-07 -0.00088888687            0 -0.00088865829 3.3609038e-08 
Loop time of 0.000261585 on 12 procs for 1 steps with 684 atoms

Step Temp E_pair E_mol TotEng Press 
      48 1.5260647e-07 -0.00088888687            0 -0.00088865829 3.3609038e-08 
      49 1.5459148e-07 -0.00089619676            0 -0.00089596521 3.4077569e-08 
Loop time of 0.000264486 on 12 procs for 1 steps with 684 atoms

Step Temp E_pair E_mol TotEng Press 
      49 1.5459148e-07 -0.00089619676            0 -0.00089596521 3.4077569e-08 
      50 1.5647126e-07 -0.00089034875            0 -0.00089011439 3.4586015e-08 
Loop time of 0.000929852 on 12 procs for 1 steps with 684 atoms

Step Temp E_pair E_mol TotEng Press 
      50 1.5647126e-07 -0.00089034875            0 -0.00089011439 3.4586015e-08 
      51 1.5626674e-07 -0.00087719081            0 -0.00087695676 3.4936552e-08 
Loop time of 0.000286639 on 12 procs for 1 steps with 684 atoms

Saving VTK file...
Step Temp E_pair E_mol TotEng Press 
      51 1.5626674e-07 -0.00087719081            0 -0.00087695676 3.4936552e-08 
      52 1.5712717e-07 -0.00088303872            0 -0.00088280337 3.5292846e-08 
Loop time of 0.000277817 on 12 procs for 1 steps with 684 atoms

Step Temp E_pair E_mol TotEng Press 
      52 1.5712717e-07 -0.00088303872            0 -0.00088280337 3.5292846e-08 
      53 1.5795403e-07 -0.00089181061            0 -0.00089157403 3.5578744e-08 
Loop time of 0.000279089 on 12 procs for 1 steps with 684 atoms

Step Temp E_pair E_mol TotEng Press 
      53 1.5795403e-07 -0.00089181061            0 -0.00089157403 3.5578744e-08 
      54 1.5941899e-07 -0.00088596262            0 -0.00088572384 3.5887505e-08 
Loop time of 0.000262181 on 12 procs for 1 steps with 684 atoms

Step Temp E_pair E_mol TotEng Press 
      54 1.5941899e-07 -0.00088596262            0 -0.00088572384 3.5887505e-08 
      55 1.6065859e-07 -0.00089034854            0 -0.00089010791 3.6288502e-08 
Loop time of 0.000281096 on 12 procs for 1 steps with 684 atoms

Step Temp E_pair E_mol TotEng Press 
      55 1.6065859e-07 -0.00089034854            0 -0.00089010791 3.6288502e-08 
      56 1.6146145e-07 -0.00090496837            0 -0.00090472653 3.6740981e-08 
Loop time of 0.000266472 on 12 procs for 1 steps with 684 atoms

Step Temp E_pair E_mol TotEng Press 
      56 1.6146145e-07 -0.00090496837            0 -0.00090472653 3.6740981e-08 
      57 1.6196452e-07 -0.00090935429            0 -0.00090911169 3.7143591e-08 
Loop time of 0.000340243 on 12 procs for 1 steps with 684 atoms

Step Temp E_pair E_mol TotEng Press 
      57 1.6196452e-07 -0.00090935429            0 -0.00090911169 3.7143591e-08 
      58 1.621864e-07 -0.00091520219            0 -0.00091495926 3.7538048e-08 
Loop time of 0.000261426 on 12 procs for 1 steps with 684 atoms

Step Temp E_pair E_mol TotEng Press 
      58 1.621864e-07 -0.00091520219            0 -0.00091495926 3.7538048e-08 
      59 1.6482948e-07 -0.00092982203            0 -0.00092957515 3.7890601e-08 
Loop time of 0.000276605 on 12 procs for 1 steps with 684 atoms

Step Temp E_pair E_mol TotEng Press 
      59 1.6482948e-07 -0.00092982203            0 -0.00092957515 3.7890601e-08 
      60 1.6778978e-07 -0.00092543603            0 -0.00092518471 3.8218664e-08 
Loop time of 0.000930031 on 12 procs for 1 steps with 684 atoms

Step Temp E_pair E_mol TotEng Press 
      60 1.6778978e-07 -0.00092543603            0 -0.00092518471 3.8218664e-08 
      61 1.6878169e-07 -0.00092397401            0 -0.00092372121 3.8452832e-08 
Loop time of 0.000264287 on 12 procs for 1 steps with 684 atoms

Saving VTK file...
Step Temp E_pair E_mol TotEng Press 
      61 1.6878169e-07 -0.00092397401            0 -0.00092372121 3.8452832e-08 
      62 1.7084177e-07 -0.00093128392            0 -0.00093102803 3.8684256e-08 
Loop time of 0.000385781 on 12 procs for 1 steps with 684 atoms

Step Temp E_pair E_mol TotEng Press 
      62 1.7084177e-07 -0.00093128392            0 -0.00093102803 3.8684256e-08 
      63 1.7081249e-07 -0.00093128389            0 -0.00093102805 3.880852e-08 
Loop time of 0.000275294 on 12 procs for 1 steps with 684 atoms

Step Temp E_pair E_mol TotEng Press 
      63 1.7081249e-07 -0.00093128389            0 -0.00093102805 3.880852e-08 
      64 1.6794021e-07 -0.00091958794            0 -0.0009193364 3.9002366e-08 
Loop time of 0.000271996 on 12 procs for 1 steps with 684 atoms

Step Temp E_pair E_mol TotEng Press 
      64 1.6794021e-07 -0.00091958794            0 -0.0009193364 3.9002366e-08 
      65 1.6514437e-07 -0.00090789199            0 -0.00090764463 3.9252597e-08 
Loop time of 0.000266512 on 12 procs for 1 steps with 684 atoms

Step Temp E_pair E_mol TotEng Press 
      65 1.6514437e-07 -0.00090789199            0 -0.00090764463 3.9252597e-08 
      66 1.6440248e-07 -0.00090496797            0 -0.00090472173 3.9451213e-08 
Loop time of 0.00028193 on 12 procs for 1 steps with 684 atoms

Step Temp E_pair E_mol TotEng Press 
      66 1.6440248e-07 -0.00090496797            0 -0.00090472173 3.9451213e-08 
      67 1.6587452e-07 -0.0009093539            0 -0.00090910545 3.9720508e-08 
Loop time of 0.000276963 on 12 procs for 1 steps with 684 atoms

Step Temp E_pair E_mol TotEng Press 
      67 1.6587452e-07 -0.0009093539            0 -0.00090910545 3.9720508e-08 
      68 1.6860013e-07 -0.00090935386            0 -0.00090910133 4.0072765e-08 
Loop time of 0.000331461 on 12 procs for 1 steps with 684 atoms

Step Temp E_pair E_mol TotEng Press 
      68 1.6860013e-07 -0.00090935386            0 -0.00090910133 4.0072765e-08 
      69 1.709865e-07 -0.00091227779            0 -0.00091202169 4.0368261e-08 
Loop time of 0.000267506 on 12 procs for 1 steps with 684 atoms

Step Temp E_pair E_mol TotEng Press 
      69 1.709865e-07 -0.00091227779            0 -0.00091202169 4.0368261e-08 
      70 1.7283975e-07 -0.00090496781            0 -0.00090470892 4.0676804e-08 
Loop time of 0.000943303 on 12 procs for 1 steps with 684 atoms

Step Temp E_pair E_mol TotEng Press 
      70 1.7283975e-07 -0.00090496781            0 -0.00090470892 4.0676804e-08 
      71 1.7504028e-07 -0.00089473385            0 -0.00089447167 4.0917017e-08 
Loop time of 0.000269194 on 12 procs for 1 steps with 684 atoms

Saving VTK file...
Step Temp E_pair E_mol TotEng Press 
      71 1.7504028e-07 -0.00089473385            0 -0.00089447167 4.0917017e-08 
      72 1.775186e-07 -0.00089473379            0 -0.00089446791 4.1294332e-08 
Loop time of 0.000286738 on 12 procs for 1 steps with 684 atoms

Step Temp E_pair E_mol TotEng Press 
      72 1.775186e-07 -0.00089473379            0 -0.00089446791 4.1294332e-08 
      73 1.7923272e-07 -0.00089619573            0 -0.00089592727 4.1667579e-08 
Loop time of 0.000281811 on 12 procs for 1 steps with 684 atoms

Step Temp E_pair E_mol TotEng Press 
      73 1.7923272e-07 -0.00089619573            0 -0.00089592727 4.1667579e-08 
      74 1.7901747e-07 -0.00089619568            0 -0.00089592755 4.2015789e-08 
Loop time of 0.000264684 on 12 procs for 1 steps with 684 atoms

Step Temp E_pair E_mol TotEng Press 
      74 1.7901747e-07 -0.00089619568            0 -0.00089592755 4.2015789e-08 
      75 1.787783e-07 -0.00089911962            0 -0.00089885184 4.2295311e-08 
Loop time of 0.000536144 on 12 procs for 1 steps with 684 atoms

Step Temp E_pair E_mol TotEng Press 
      75 1.787783e-07 -0.00089911962            0 -0.00089885184 4.2295311e-08 
      76 1.8061512e-07 -0.00089619559            0 -0.00089592506 4.2629884e-08 
Loop time of 0.00026232 on 12 procs for 1 steps with 684 atoms

Step Temp E_pair E_mol TotEng Press 
      76 1.8061512e-07 -0.00089619559            0 -0.00089592506 4.2629884e-08 
      77 1.8245423e-07 -0.00089473356            0 -0.00089446028 4.3005789e-08 
Loop time of 0.000263274 on 12 procs for 1 steps with 684 atoms

Step Temp E_pair E_mol TotEng Press 
      77 1.8245423e-07 -0.00089473356            0 -0.00089446028 4.3005789e-08 
      78 1.8092659e-07 -0.00090058146            0 -0.00090031046 4.3407456e-08 
Loop time of 0.000255187 on 12 procs for 1 steps with 684 atoms

Step Temp E_pair E_mol TotEng Press 
      78 1.8092659e-07 -0.00090058146            0 -0.00090031046 4.3407456e-08 
      79 1.8109882e-07 -0.00091227731            0 -0.00091200606 4.3815714e-08 
Loop time of 0.000279069 on 12 procs for 1 steps with 684 atoms

Step Temp E_pair E_mol TotEng Press 
      79 1.8109882e-07 -0.00091227731            0 -0.00091200606 4.3815714e-08 
      80 1.8433065e-07 -0.0009210492            0 -0.00092077311 4.4172184e-08 
Loop time of 0.0011512 on 12 procs for 1 steps with 684 atoms

Step Temp E_pair E_mol TotEng Press 
      80 1.8433065e-07 -0.0009210492            0 -0.00092077311 4.4172184e-08 
      81 1.8470413e-07 -0.00092104916            0 -0.0009207725 4.4446275e-08 
Loop time of 0.000266592 on 12 procs for 1 steps with 684 atoms

Saving VTK file...
Step Temp E_pair E_mol TotEng Press 
      81 1.8470413e-07 -0.00092104916            0 -0.0009207725 4.4446275e-08 
      82 1.8249886e-07 -0.00092104912            0 -0.00092077577 4.4574218e-08 
Loop time of 0.000287215 on 12 procs for 1 steps with 684 atoms

Step Temp E_pair E_mol TotEng Press 
      82 1.8249886e-07 -0.00092104912            0 -0.00092077577 4.4574218e-08 
      83 1.8124057e-07 -0.00091081516            0 -0.0009105437 4.4634663e-08 
Loop time of 0.000272214 on 12 procs for 1 steps with 684 atoms

Step Temp E_pair E_mol TotEng Press 
      83 1.8124057e-07 -0.00091081516            0 -0.0009105437 4.4634663e-08 
      84 1.7998214e-07 -0.00091081513            0 -0.00091054555 4.4709661e-08 
Loop time of 0.000280162 on 12 procs for 1 steps with 684 atoms

Step Temp E_pair E_mol TotEng Press 
      84 1.7998214e-07 -0.00091081513            0 -0.00091054555 4.4709661e-08 
      85 1.785319e-07 -0.00092104902            0 -0.00092078161 4.481805e-08 
Loop time of 0.000264049 on 12 procs for 1 steps with 684 atoms

Step Temp E_pair E_mol TotEng Press 
      85 1.785319e-07 -0.00092104902            0 -0.00092078161 4.481805e-08 
      86 1.7997493e-07 -0.00091666302            0 -0.00091639346 4.4998782e-08 
Loop time of 0.000293056 on 12 procs for 1 steps with 684 atoms

Step Temp E_pair E_mol TotEng Press 
      86 1.7997493e-07 -0.00091666302            0 -0.00091639346 4.4998782e-08 
      87 1.811892e-07 -0.00091958698            0 -0.0009193156 4.5097086e-08 
Loop time of 0.000263294 on 12 procs for 1 steps with 684 atoms

Step Temp E_pair E_mol TotEng Press 
      87 1.811892e-07 -0.00091958698            0 -0.0009193156 4.5097086e-08 
      88 1.8378063e-07 -0.00090935305            0 -0.00090907778 4.5172739e-08 
Loop time of 0.000270963 on 12 procs for 1 steps with 684 atoms

Step Temp E_pair E_mol TotEng Press 
      88 1.8378063e-07 -0.00090935305            0 -0.00090907778 4.5172739e-08 
      89 1.8525466e-07 -0.00091081502            0 -0.00091053755 4.5270049e-08 
Loop time of 0.000260492 on 12 procs for 1 steps with 684 atoms

Step Temp E_pair E_mol TotEng Press 
      89 1.8525466e-07 -0.00091081502            0 -0.00091053755 4.5270049e-08 
      90 1.8307028e-07 -0.00090935303            0 -0.00090907882 4.526708e-08 
Loop time of 0.00148207 on 12 procs for 1 steps with 684 atoms

Step Temp E_pair E_mol TotEng Press 
      90 1.8307028e-07 -0.00090935303            0 -0.00090907882 4.526708e-08 
      91 1.8310343e-07 -0.00090935301            0 -0.00090907876 4.5274555e-08 
Loop time of 0.000269115 on 12 procs for 1 steps with 684 atoms

Saving VTK file...
Step Temp E_pair E_mol TotEng Press 
      91 1.8310343e-07 -0.00090935301            0 -0.00090907876 4.5274555e-08 
      92 1.8578841e-07 -0.00090789098            0 -0.0009076127 4.5546243e-08 
Loop time of 0.000294089 on 12 procs for 1 steps with 684 atoms

Step Temp E_pair E_mol TotEng Press 
      92 1.8578841e-07 -0.00090789098            0 -0.0009076127 4.5546243e-08 
      93 1.8912902e-07 -0.00091081491            0 -0.00091053164 4.588216e-08 
Loop time of 0.00028344 on 12 procs for 1 steps with 684 atoms

Step Temp E_pair E_mol TotEng Press 
      93 1.8912902e-07 -0.00091081491            0 -0.00091053164 4.588216e-08 
      94 1.8779087e-07 -0.00091081489            0 -0.00091053361 4.605447e-08 
Loop time of 0.000262817 on 12 procs for 1 steps with 684 atoms

Step Temp E_pair E_mol TotEng Press 
      94 1.8779087e-07 -0.00091081489            0 -0.00091053361 4.605447e-08 
      95 1.8463637e-07 -0.00091666281            0 -0.00091638626 4.6256038e-08 
Loop time of 0.000264068 on 12 procs for 1 steps with 684 atoms

Step Temp E_pair E_mol TotEng Press 
      95 1.8463637e-07 -0.00091666281            0 -0.00091638626 4.6256038e-08 
      96 1.8434912e-07 -0.00091958677            0 -0.00091931065 4.6419277e-08 
Loop time of 0.000290275 on 12 procs for 1 steps with 684 atoms

Step Temp E_pair E_mol TotEng Press 
      96 1.8434912e-07 -0.00091958677            0 -0.00091931065 4.6419277e-08 
      97 1.8608072e-07 -0.00092543471            0 -0.00092515599 4.6603877e-08 
Loop time of 0.000286023 on 12 procs for 1 steps with 684 atoms

Step Temp E_pair E_mol TotEng Press 
      97 1.8608072e-07 -0.00092543471            0 -0.00092515599 4.6603877e-08 
      98 1.877461e-07 -0.0009268967            0 -0.00092661549 4.6774096e-08 
Loop time of 0.000264903 on 12 procs for 1 steps with 684 atoms

Step Temp E_pair E_mol TotEng Press 
      98 1.877461e-07 -0.0009268967            0 -0.00092661549 4.6774096e-08 
      99 1.8828608e-07 -0.00091958674            0 -0.00091930473 4.7026956e-08 
Loop time of 0.000256936 on 12 procs for 1 steps with 684 atoms

Step Temp E_pair E_mol TotEng Press 
      99 1.8828608e-07 -0.00091958674            0 -0.00091930473 4.7026956e-08 
     100 1.8860702e-07 -0.00091812471            0 -0.00091784222 4.7376659e-08 
Loop time of 0.000973344 on 12 procs for 1 steps with 684 atoms

Step Temp E_pair E_mol TotEng Press 
     100 1.8860702e-07 -0.00091812471            0 -0.00091784222 4.7376659e-08 
     101 1.8923973e-07 -0.00092543461            0 -0.00092515117 4.7694828e-08 
Loop time of 0.000265181 on 12 procs for 1 steps with 684 atoms

total execution time 1.03467
