684
Atoms. Timestep: 0
3 7 1 40
3 9 1 40
3 11 1 40
3 13 1 40
3 7 1 42
3 9 1 42
3 11 1 42
3 13 1 42
3 7 1 44
3 9 1 44
3 11 1 44
3 13 1 44
3 7 1 46
3 9 1 46
3 11 1 46
3 13 1 46
3 7 1 48
3 9 1 48
3 11 1 48
3 13 1 48
3 7 1 50
3 9 1 50
3 11 1 50
3 13 1 50
3 7 1 52
3 9 1 52
3 11 1 52
3 13 1 52
3 7 1 54
3 9 1 54
3 11 1 54
3 13 1 54
1 4 1 4
1 6 1 4
1 10 1 4
1 12 1 4
1 18 1 4
1 4 1 6
1 6 1 6
1 10 1 6
1 12 1 6
1 14 1 6
1 16 1 6
1 4 1 8
1 6 1 8
1 8 1 8
1 10 1 8
1 12 1 8
1 16 1 8
1 18 1 8
1 4 1 10
1 6 1 10
1 8 1 10
1 10 1 10
1 12 1 10
1 16 1 10
1 10 1 12
1 12 1 12
1 14 1 12
1 16 1 12
1 4 1 14
1 6 1 14
1 8 1 14
1 10 1 14
1 14 1 14
1 16 1 14
1 18 1 14
1 4 1 16
1 6 1 16
1 10 1 16
1 12 1 16
1 18 1 16
1 4 1 18
1 6 1 18
1 8 1 18
1 12 1 18
1 16 1 18
1 18 1 18
1 4 1 20
1 6 1 20
1 8 1 20
1 16 1 20
1 4 1 22
1 8 1 22
1 10 1 22
1 16 1 22
1 18 1 22
1 4 1 24
1 6 1 24
1 8 1 24
1 10 1 24
1 12 1 24
1 16 1 24
1 18 1 24
1 4 1 26
1 6 1 26
1 12 1 26
1 14 1 26
1 16 1 26
1 4 1 28
1 6 1 28
1 10 1 28
1 14 1 28
1 16 1 28
1 18 1 28
1 6 1 30
1 10 1 30
1 12 1 30
1 14 1 30
1 16 1 30
1 6 1 32
1 10 1 32
1 12 1 32
1 14 1 32
1 18 1 32
1 6 3 4
1 10 3 4
1 12 3 4
1 14 3 4
1 18 3 4
1 6 3 6
1 8 3 6
1 10 3 6
1 4 3 8
1 6 3 8
1 8 3 8
1 12 3 8
1 14 3 8
1 16 3 8
1 18 3 8
1 4 3 10
1 16 3 10
1 4 3 12
1 6 3 12
1 8 3 12
1 10 3 12
1 12 3 12
1 14 3 12
1 16 3 12
1 4 3 14
1 6 3 14
1 10 3 14
1 16 3 14
1 18 3 14
1 4 3 16
1 10 3 16
1 12 3 16
1 4 3 18
1 6 3 18
1 8 3 18
1 10 3 18
1 12 3 18
1 16 3 18
1 4 3 20
1 8 3 20
1 10 3 20
1 12 3 20
1 16 3 20
1 18 3 20
1 4 3 22
1 6 3 22
1 8 3 22
1 10 3 22
1 12 3 22
1 14 3 22
1 16 3 22
1 18 3 22
1 4 3 24
1 6 3 24
1 8 3 24
1 10 3 24
1 12 3 24
1 14 3 24
1 16 3 24
1 18 3 24
1 4 3 26
1 6 3 26
1 10 3 26
1 12 3 26
1 16 3 26
1 10 3 28
1 12 3 28
1 14 3 28
1 16 3 28
1 4 3 30
1 6 3 30
1 8 3 30
1 14 3 30
1 16 3 30
1 4 3 32
1 6 3 32
1 14 3 32
1 16 3 32
1 18 3 32
1 8 5 4
1 12 5 4
1 14 5 4
1 16 5 4
1 18 5 4
1 6 5 6
1 8 5 6
1 10 5 6
1 12 5 6
1 16 5 6
1 18 5 6
1 4 5 8
1 6 5 8
1 8 5 8
1 10 5 8
1 14 5 8
1 16 5 8
1 18 5 8
1 8 5 10
1 10 5 10
1 14 5 10
1 18 5 10
1 4 5 12
1 6 5 12
1 8 5 12
1 10 5 12
1 12 5 12
1 14 5 12
1 16 5 12
1 6 5 14
1 8 5 14
1 10 5 14
1 12 5 14
1 14 5 14
1 16 5 14
1 18 5 14
1 4 5 16
1 6 5 16
1 12 5 16
1 16 5 16
1 4 5 18
1 6 5 18
1 8 5 18
1 10 5 18
1 14 5 18
1 4 5 20
1 8 5 20
1 10 5 20
1 12 5 20
1 16 5 20
1 18 5 20
1 4 5 22
1 6 5 22
1 8 5 22
1 10 5 22
1 12 5 22
1 14 5 22
1 6 5 24
1 8 5 24
1 10 5 24
1 14 5 24
1 16 5 24
1 18 5 24
1 4 5 26
1 6 5 26
1 10 5 26
1 14 5 26
1 4 5 28
1 8 5 28
1 10 5 28
1 12 5 28
1 14 5 28
1 18 5 28
1 6 5 30
1 8 5 30
1 10 5 30
1 12 5 30
1 14 5 30
1 16 5 30
1 18 5 30
1 4 5 32
1 6 5 32
1 8 5 32
1 10 5 32
1 16 5 32
1 6 7 4
1 8 7 4
1 10 7 4
1 14 7 4
1 16 7 4
1 18 7 4
1 6 7 6
1 8 7 6
1 10 7 6
1 14 7 6
1 16 7 6
1 4 7 8
1 8 7 8
1 10 7 8
1 16 7 8
1 4 7 10
1 6 7 10
1 8 7 10
1 10 7 10
1 12 7 10
1 16 7 10
1 18 7 10
1 4 7 12
1 8 7 12
1 12 7 12
1 14 7 12
1 4 7 14
1 8 7 14
1 10 7 14
1 12 7 14
1 14 7 14
1 16 7 14
1 6 7 16
1 8 7 16
1 10 7 16
1 12 7 16
1 14 7 16
1 16 7 16
1 18 7 16
1 4 7 18
1 6 7 18
1 10 7 18
1 12 7 18
1 14 7 18
1 8 7 20
1 10 7 20
1 12 7 20
1 14 7 20
1 16 7 20
1 18 7 20
1 4 7 22
1 6 7 22
1 10 7 22
1 14 7 22
1 16 7 22
1 8 7 24
1 10 7 24
1 12 7 24
1 14 7 24
1 16 7 24
1 4 7 26
1 6 7 26
1 8 7 26
1 12 7 26
1 14 7 26
1 16 7 26
1 18 7 26
1 4 7 28
1 6 7 28
1 8 7 28
1 14 7 28
1 16 7 28
1 4 7 30
1 6 7 30
1 10 7 30
1 14 7 30
1 18 7 30
1 10 7 32
1 12 7 32
1 14 7 32
1 16 7 32
1 18 7 32
1 4 9 4
1 6 9 4
1 8 9 4
1 10 9 4
1 14 9 4
1 4 9 6
1 6 9 6
1 8 9 6
1 10 9 6
1 12 9 6
1 14 9 6
1 16 9 6
1 18 9 6
1 4 9 8
1 6 9 8
1 10 9 8
1 12 9 8
1 14 9 8
1 16 9 8
1 4 9 10
1 8 9 10
1 10 9 10
1 12 9 10
1 14 9 10
1 16 9 10
1 18 9 10
1 4 9 12
1 6 9 12
1 8 9 12
1 10 9 12
1 4 9 14
1 6 9 14
1 8 9 14
1 10 9 14
1 12 9 14
1 14 9 14
1 16 9 14
1 18 9 14
1 8 9 16
1 12 9 16
1 14 9 16
1 16 9 16
1 18 9 16
1 4 9 18
1 6 9 18
1 8 9 18
1 10 9 18
1 12 9 18
1 16 9 18
1 6 9 20
1 10 9 20
1 12 9 20
1 14 9 20
1 16 9 20
1 18 9 20
1 4 9 22
1 6 9 22
1 8 9 22
1 12 9 22
1 14 9 22
1 4 9 24
1 6 9 24
1 8 9 24
1 10 9 24
1 12 9 24
1 14 9 24
1 16 9 24
1 18 9 24
1 4 9 26
1 8 9 26
1 10 9 26
1 12 9 26
1 14 9 26
1 16 9 26
1 18 9 26
1 4 9 28
1 8 9 28
1 10 9 28
1 12 9 28
1 14 9 28
1 16 9 28
1 6 9 30
1 8 9 30
1 10 9 30
1 12 9 30
1 14 9 30
1 16 9 30
1 8 9 32
1 10 9 32
1 14 9 32
1 4 11 4
1 6 11 4
1 8 11 4
1 10 11 4
1 12 11 4
1 14 11 4
1 16 11 4
1 18 11 4
1 6 11 6
1 8 11 6
1 10 11 6
1 12 11 6
1 14 11 6
1 16 11 6
1 4 11 8
1 6 11 8
1 8 11 8
1 10 11 8
1 12 11 8
1 14 11 8
1 18 11 8
1 6 11 10
1 8 11 10
1 10 11 10
1 12 11 10
1 14 11 10
1 16 11 10
1 18 11 10
1 4 11 12
1 6 11 12
1 12 11 12
1 14 11 12
1 16 11 12
1 4 11 14
1 6 11 14
1 10 11 14
1 12 11 14
1 16 11 14
1 14 11 16
1 18 11 16
1 4 11 18
1 6 11 18
1 8 11 18
1 10 11 18
1 14 11 18
1 16 11 18
1 18 11 18
1 8 11 20
1 10 11 20
1 12 11 20
1 16 11 20
1 10 11 22
1 12 11 22
1 16 11 22
1 18 11 22
1 4 11 24
1 8 11 24
1 10 11 24
1 12 11 24
1 14 11 24
1 16 11 24
1 18 11 24
1 6 11 26
1 12 11 26
1 14 11 26
1 18 11 26
1 4 11 28
1 6 11 28
1 10 11 28
1 12 11 28
1 14 11 28
1 16 11 28
1 18 11 28
1 8 11 30
1 10 11 30
1 12 11 30
1 16 11 30
1 18 11 30
1 4 11 32
1 6 11 32
1 10 11 32
1 12 11 32
1 14 11 32
1 16 11 32
1 6 13 4
1 10 13 4
1 12 13 4
1 18 13 4
1 4 13 6
1 6 13 6
1 8 13 6
1 12 13 6
1 14 13 6
1 16 13 6
1 4 13 8
1 12 13 8
1 4 13 10
1 8 13 10
1 14 13 10
1 16 13 10
1 4 13 12
1 6 13 12
1 16 13 12
1 18 13 12
1 4 13 14
1 10 13 14
1 12 13 14
1 14 13 14
1 18 13 14
1 4 13 16
1 8 13 16
1 14 13 16
1 16 13 16
1 18 13 16
1 4 13 18
1 6 13 18
1 8 13 18
1 12 13 18
1 14 13 18
1 16 13 18
1 4 13 20
1 6 13 20
1 8 13 20
1 10 13 20
1 16 13 20
1 18 13 20
1 4 13 22
1 6 13 22
1 8 13 22
1 16 13 22
1 18 13 22
1 4 13 24
1 8 13 24
1 14 13 24
1 16 13 24
1 18 13 24
1 4 13 26
1 6 13 26
1 8 13 26
1 12 13 26
1 14 13 26
1 16 13 26
1 4 13 28
1 6 13 28
1 8 13 28
1 10 13 28
1 12 13 28
1 14 13 28
1 4 13 30
1 8 13 30
1 10 13 30
1 14 13 30
1 16 13 30
1 4 13 32
1 12 13 32
1 16 13 32
1 6 15 4
1 10 15 4
1 12 15 4
1 14 15 4
1 16 15 4
1 18 15 4
1 4 15 6
1 6 15 6
1 10 15 6
1 16 15 6
1 18 15 6
1 4 15 8
1 6 15 8
1 12 15 8
1 14 15 8
1 16 15 8
1 18 15 8
1 6 15 10
1 8 15 10
1 10 15 10
1 4 15 12
1 6 15 12
1 8 15 12
1 10 15 12
1 14 15 12
1 12 15 14
1 14 15 14
1 4 15 16
1 6 15 16
1 8 15 16
1 16 15 16
1 18 15 16
1 4 15 18
1 6 15 18
1 10 15 18
1 12 15 18
1 18 15 18
1 6 15 20
1 8 15 20
1 10 15 20
1 12 15 20
1 14 15 20
1 18 15 20
1 6 15 22
1 8 15 22
1 10 15 22
1 12 15 22
1 16 15 22
1 18 15 22
1 4 15 24
1 6 15 24
1 10 15 24
1 12 15 24
1 14 15 24
1 16 15 24
1 18 15 24
1 4 15 26
1 6 15 26
1 14 15 26
1 16 15 26
1 18 15 26
1 4 15 28
1 6 15 28
1 10 15 28
1 12 15 28
1 14 15 28
1 16 15 28
1 4 15 30
1 6 15 30
1 12 15 30
1 18 15 30
1 4 15 32
1 6 15 32
1 8 15 32
1 12 15 32
1 14 15 32
1 16 15 32
684
Atoms. Timestep: 10
3 7 1 40
3 9 1 40
3 11 1 40
3 13 1 40
3 7 1 42
3 9 1 42
3 11 1 42
3 13 1 42
3 7 1 44
3 9 1 44
3 11 1 44
3 13 1 44
3 7 1 46
3 9 1 46
3 11 1 46
3 13 1 46
3 7 1 48
3 9 1 48
3 11 1 48
3 13 1 48
3 7 1 50
3 9 1 50
3 11 1 50
3 13 1 50
3 7 1 52
3 9 1 52
3 11 1 52
3 13 1 52
3 7 1 54
3 9 1 54
3 11 1 54
3 13 1 54
1 3.99966 1.0004 4.00011
1 6.00025 1.00043 4.00009
1 10.0007 0.999762 4.00053
1 12 0.999896 4.00045
1 17.9993 0.999843 4.00073
1 3.99996 0.999798 6.00002
1 6.00061 0.999999 6.00074
1 9.99961 1.0003 6.00079
1 12.0001 0.999412 6.00012
1 13.9998 1.00002 6.00025
1 15.9997 0.999451 6.00071
1 4.00085 0.999692 8.00032
1 5.99998 1.0007 8.00136
1 8.00009 1.0007 8.00071
1 9.99936 1.00046 8.00061
1 11.9997 1.00003 8.00085
1 16.0005 1.0003 8.00067
1 18 0.999864 8.00029
1 4.00086 1.00003 10.0002
1 5.99974 0.999714 10.0007
1 8.00024 1.00032 10.0007
1 10.0007 0.999722 10.001
1 11.9994 1.00024 10.0005
1 15.9996 1.00051 10.001
1 10.0001 1.00002 12.0011
1 11.9998 1.00006 11.9997
1 13.9998 0.999156 12.0009
1 16.0001 0.999941 12.0011
1 4.00026 0.999699 14.0004
1 6.00036 0.998885 14.0004
1 7.99958 1.00048 14.0005
1 10.0002 0.999627 14
1 14 1.00012 14.0007
1 15.9998 1.00048 14.0009
1 17.9998 0.998934 14.0002
1 3.99989 1.00016 16.0001
1 6.0001 0.998871 16.0003
1 9.99969 1.00106 15.9993
1 12.0002 1.00057 16.0002
1 18.0002 1.00027 16.0008
1 3.99977 0.999564 17.9999
1 6.00055 1.00056 18.0006
1 8.00051 1.00052 18.0007
1 11.9998 0.999555 18
1 15.9998 1.00066 17.9999
1 17.9995 1.00016 18
1 4.00011 1.00018 20.0008
1 5.99961 0.999924 20.0006
1 7.99972 1.00021 20.0005
1 15.9999 0.999589 20.0015
1 4.0001 0.999863 22.0006
1 7.99948 0.999497 22.0006
1 10.0005 1.00116 22.0009
1 16 1.00089 21.9999
1 18.0004 1.00049 22.0002
1 3.99934 1.00011 23.9999
1 6.0007 0.999678 24
1 8.00021 0.999875 24.0006
1 10.0008 0.999002 24.0008
1 11.9998 0.999562 24.0009
1 15.9999 0.999845 24.0003
1 17.9997 0.999805 24.0007
1 3.99976 0.999769 26.0005
1 5.99967 0.999997 26.0005
1 11.9995 1.00084 26.0006
1 13.9998 0.999834 25.9998
1 16.0003 1.00042 26.0006
1 3.99982 1.00065 28.0005
1 6.00054 0.999667 28.0008
1 10.0003 1.0001 28.0005
1 14.0001 0.999399 27.9999
1 16.0004 1.00022 28.0009
1 18 1.00061 28.0002
1 6.00076 1.00079 30.0007
1 10.0001 0.999485 30.0009
1 11.9999 0.999961 30
1 14.0003 1.00013 30.0006
1 16 0.999911 30.0006
1 5.99997 1.00052 32.0009
1 10.0005 1.00017 32.0001
1 12.0001 0.99984 32.0003
1 14.0003 1.00066 32.001
1 17.9999 0.999763 32.0013
1 6 2.99961 4.0015
1 9.99981 3.0001 4.00141
1 12 2.99964 4.00188
1 13.999 2.9996 4.00094
1 17.9997 3.00023 4.00113
1 5.99978 3.00031 6.00211
1 8.00024 2.9995 6.00215
1 9.99971 2.99987 6.00155
1 3.99951 3.00014 8.00069
1 5.99939 2.99976 8.00081
1 7.99999 3.00014 8.00113
1 12 3.00065 8.00119
1 13.9995 3.00005 8.00096
1 15.9997 2.99948 8.00119
1 18.0002 2.99998 8.00068
1 3.99998 3.00026 10.0015
1 16.0001 3.00001 10.002
1 4.00023 2.99916 12.0013
1 6.00039 2.99945 12.0012
1 7.99978 2.9999 12.0022
1 10.0001 3.00006 12.0015
1 12.0001 3.00015 12.0004
1 14.0003 2.99994 12.0016
1 16.0003 3.0002 12.0013
1 3.99997 2.99997 14.0006
1 6.00001 2.99966 14.0016
1 10.0004 3.00016 14.0009
1 15.9994 2.99992 14.0008
1 17.9995 2.99942 14.0011
1 3.99942 3.00051 16.0011
1 10.0001 3.00002 16.0019
1 11.9996 2.99979 16.0012
1 3.99964 3.00015 18.0009
1 6.0001 2.99973 18.0003
1 7.99993 2.99984 18.0008
1 9.99992 2.99899 18.0015
1 12.0005 3.0004 18.0013
1 16 3.00045 18.0014
1 4.00017 3.00027 20.0011
1 8.00009 3.00038 20.0016
1 10.0002 2.99948 20.0016
1 11.9998 2.99998 20.0011
1 16.0002 3.00005 20.0009
1 18.0005 3.00037 20.0004
1 3.99974 3.00079 22.0015
1 6.0003 3.00007 22.0011
1 8.00035 3.0002 22.0012
1 10.0002 2.99998 22.0013
1 12.0003 3.00022 22.0016
1 13.9999 3.00057 22.0011
1 16.0012 3.0002 22.0016
1 17.9997 2.99976 22.0012
1 4.00002 3.00003 24.0012
1 6.00042 2.99974 24.0015
1 8.00042 2.99934 24.0017
1 9.99899 2.99994 24.0015
1 11.9991 3.00039 24.0012
1 14.0007 2.99973 24.0012
1 16.0008 3.00009 24.0008
1 17.9995 2.99956 24.0005
1 4.00017 3.00008 26.0015
1 5.99977 2.99914 26.0016
1 9.99933 2.99961 26.0013
1 12.0003 3.00001 26.0013
1 15.9996 2.99973 26.0012
1 10.0008 2.99983 28.0012
1 12.0002 2.99979 28.0022
1 13.9995 3.00057 28.0012
1 15.9999 3.00068 28.0009
1 4.00021 3.00029 30.0014
1 6.00009 3.00044 30.0009
1 8.00034 3.00034 30.0016
1 14 2.99988 30.0012
1 16.0005 3.00026 30.0009
1 4 3.00002 32.0007
1 5.99998 3.00027 32.0008
1 14.0001 2.99942 32.0012
1 16.0004 3.0004 32.0016
1 17.9997 2.99938 32.0006
1 7.99989 4.99958 4.00184
1 11.9995 4.99945 4.00206
1 14 5.00081 4.00261
1 16.0005 4.99997 4.00164
1 17.9992 5.00057 4.00113
1 5.99915 4.99975 6.00169
1 7.99927 4.99956 6.00238
1 10.0001 5.00025 6.00195
1 11.9991 4.99971 6.00135
1 16.0005 5.00065 6.00174
1 18.0001 4.99976 6.00127
1 4.00064 4.99989 8.00115
1 6.00072 5.00023 8.0026
1 8.00064 4.99982 8.00179
1 9.99966 4.99929 8.00196
1 14.0003 5.00005 8.00236
1 16.0009 4.99965 8.00167
1 18.0004 5.00019 8.00129
1 7.99976 5.00037 10.0025
1 9.99984 5.00026 10.0026
1 14.0004 5 10.0016
1 17.9995 5.00005 10.0002
1 3.99973 5.00046 12.0008
1 6.00027 5.0002 12.0023
1 7.9997 4.99997 12.0018
1 9.99992 5.00025 12.0021
1 12.0004 5.0003 12.0013
1 13.9998 4.99939 12.002
1 16.0004 4.99986 12.0017
1 6.00008 4.99999 14.0016
1 7.99958 5.00026 14.0014
1 9.99994 4.9995 14.0024
1 12 4.99982 14.0021
1 13.9999 4.99992 14.002
1 15.9997 5.0005 14.0017
1 18.0002 4.99913 14.0005
1 4.00027 5.00008 16.0016
1 5.99969 4.99915 16.0019
1 11.9995 4.99866 16.0021
1 15.9999 5.0001 16.0016
1 4.00008 4.99973 18.0014
1 5.99943 5.00008 18.0022
1 7.9994 4.99999 18.0017
1 9.99942 4.99963 18.0014
1 13.9996 4.99997 18.0021
1 3.9996 4.99972 20.0014
1 8.00054 5.00033 20.0022
1 9.99978 4.9999 20.0014
1 11.9996 5.00022 20.0017
1 15.9996 5.00023 20.0017
1 18.0002 5.00053 20.0012
1 4.00042 5.00041 22.0016
1 5.99996 5.00051 22.0012
1 7.99947 5.00071 22.0025
1 9.99993 4.99983 22.0026
1 12.0005 4.99971 22.0018
1 14.0004 5.00016 22.0022
1 5.99954 5.00041 24.0013
1 7.99996 5.00044 24.0017
1 10.0008 4.99979 24.0025
1 13.9988 5.00065 24.0021
1 16.0003 4.9999 24.0012
1 17.9996 5 24.0003
1 4.00013 5.00089 26.0003
1 6.00046 4.99986 26.0017
1 9.99995 5.0006 26.0019
1 13.9999 5.00046 26.0012
1 3.99986 4.99966 28.0016
1 8.00004 5.00001 28.0027
1 10.0006 4.99987 28.0022
1 12.0002 4.99969 28.0013
1 13.9997 5.00087 28.0018
1 17.9998 5.00024 28.001
1 6.00037 4.99941 30.0018
1 8.00009 5.0008 30.0024
1 10.0002 4.99951 30.0021
1 12.0002 4.99997 30.0022
1 14.0002 5.00012 30.0021
1 15.9998 4.99986 30.0013
1 18.0006 5.00106 30.0007
1 3.99949 4.99991 32.0013
1 6.00099 4.99951 32.002
1 8.00074 5.0002 32.002
1 9.99986 5.00035 32.0027
1 16.001 4.99981 32.0016
1 6.00008 7 4.00206
1 7.99961 6.99972 4.00234
1 10.0001 6.99917 4.00273
1 13.9995 6.99965 4.00208
1 16.0001 6.99994 4.00141
1 18.0002 6.99972 4.00084
1 6.00007 6.99988 6.0032
1 8.00011 6.99965 6.00241
1 10.0003 6.99981 6.00226
1 14.0005 7.00047 6.00282
1 16.0004 6.99987 6.00117
1 3.99988 7.00055 8.00133
1 8.00071 7.00088 8.00228
1 9.99949 7.00035 8.00251
1 16.0004 6.99993 8.00171
1 3.99956 6.99982 10.0009
1 5.99994 6.99971 10.0023
1 8.00001 7.0004 10.002
1 9.99984 7.00019 10.0032
1 11.9997 7.00055 10.0028
1 16.0008 6.99982 10.0012
1 17.9991 7.00022 10.0016
1 3.99981 7.00001 12.001
1 7.99973 7.00026 12.0022
1 12 7.00022 12.0016
1 13.9995 7.0001 12.0024
1 3.99982 6.9993 14.0022
1 7.99966 7.00023 14.0022
1 9.99963 6.99952 14.0025
1 11.9996 6.99991 14.0023
1 13.9994 6.99937 14.0026
1 15.9997 6.9994 14.0015
1 6.00038 6.99996 16.0021
1 8.00007 6.99916 16.0023
1 9.99964 7.00021 16.0029
1 12.0006 6.99971 16.0027
1 13.9994 6.99919 16.0024
1 15.9999 7.00016 16.0018
1 17.9999 7.00034 16.0014
1 3.99993 7.00035 18.0022
1 5.99956 6.99961 18.0017
1 9.99954 7.00066 18.0021
1 11.9996 6.99976 18.0024
1 13.9993 6.99978 18.0019
1 7.99975 6.99974 20.0016
1 9.99942 7.00009 20.0024
1 12.0003 6.99987 20.0021
1 13.9999 7.0002 20.002
1 16 6.99961 20.0015
1 17.9996 7.00014 20.0011
1 4.00005 6.99989 22.0023
1 6.00029 6.99961 22.0022
1 10.0001 6.9999 22.0023
1 13.9997 7.00011 22.0029
1 15.9996 7.00001 22.0016
1 7.99957 7.00002 24.0025
1 9.99964 6.99945 24.0027
1 12.0001 6.99933 24.0021
1 14.0002 7.00046 24.0014
1 16 6.9998 24.0016
1 3.99942 7.00064 26.0011
1 6.00053 6.99963 26.0022
1 8.00017 7.0001 26.0031
1 11.9996 7.00021 26.0024
1 14.0003 6.99989 26.0019
1 16.0002 6.99971 26.0015
1 18.0004 6.99948 26.0003
1 3.99987 7.00023 28.0017
1 6.00056 6.99943 28.002
1 7.99996 6.99991 28.0021
1 14.0008 7.00069 28.0024
1 16.001 7.00038 28.001
1 3.99965 6.99986 30.002
1 5.99938 7.00071 30.0023
1 10.0002 6.99992 30.0016
1 13.9996 6.99901 30.0019
1 18.0002 7.00009 30.0011
1 9.99979 7.00053 32.002
1 11.9999 6.99964 32.0025
1 14 6.99956 32.0024
1 15.9998 7.00006 32.0014
1 17.9993 7.00009 32.0006
1 3.99998 8.99983 4.00212
1 5.99969 8.99977 4.00254
1 8.00046 9.00026 4.00327
1 9.99967 9.00064 4.00267
1 13.9996 8.99955 4.00186
1 4.0002 9.00004 6.00182
1 6.00025 8.99958 6.0023
1 7.99999 8.99985 6.00257
1 9.9999 9.00052 6.00347
1 12.0007 8.9998 6.00242
1 14.0001 9.00051 6.00224
1 16.0004 9.00019 6.00129
1 18.0004 9.00007 6.0012
1 3.9992 9.00029 8.00128
1 5.9996 8.99948 8.00231
1 10.0003 8.99969 8.00246
1 12.0002 8.99949 8.00259
1 14.0003 9.00016 8.00164
1 16.0001 9.00095 8.00187
1 3.99958 8.99993 10.0016
1 8.0004 9.0004 10.0035
1 10.0004 8.99978 10.0034
1 12.0004 9.00046 10.0019
1 13.9995 8.99981 10.0028
1 16.0001 8.99932 10.0012
1 18.0004 9.0006 10.0012
1 3.99978 8.99975 12.002
1 6.0004 9.00057 12.0022
1 7.99953 9 12.0026
1 9.99973 9.00096 12.0023
1 3.99964 8.99997 14.0022
1 6.00003 9.00062 14.0019
1 7.9998 8.99987 14.0026
1 9.99987 8.99856 14.0029
1 11.9998 8.99998 14.0026
1 13.9999 8.99959 14.002
1 16 8.99992 14.002
1 18.0002 8.99954 14.0013
1 8.00066 8.99961 16.0026
1 12 9.00045 16.0029
1 14.0005 8.99979 16.0019
1 16.0005 9.00036 16.001
1 17.9999 9.00027 16.0013
1 3.99998 8.99948 18.002
1 6.00048 8.99985 18.0019
1 7.99975 8.99992 18.0024
1 10.0007 9.00038 18.0029
1 12.0006 9.00078 18.0031
1 16.0003 9.00005 18.0014
1 5.9997 8.99977 20.0018
1 10 9.00024 20.0031
1 11.9998 9.00016 20.0022
1 14.0001 9.00048 20.002
1 15.9993 9.00058 20.0021
1 18.0002 9.00013 20.0008
1 4.00021 9.00018 22.0018
1 6.00032 8.99977 22.0022
1 8.00005 8.99955 22.0022
1 11.9995 9.00048 22.0023
1 13.9995 8.99959 22.0024
1 4.00012 9.00006 24.0018
1 6.00054 9.00029 24.0023
1 8.00057 9.00066 24.0028
1 9.99947 8.99974 24.0018
1 12.0009 8.99989 24.0028
1 14.0006 9.00006 24.0023
1 15.9998 8.99977 24.0015
1 18.0003 9.00071 24.001
1 3.99953 8.99968 26.002
1 7.99937 8.99976 26.002
1 10.0002 9.00006 26.0024
1 11.9993 8.99988 26.0035
1 14.0001 9.00048 26.0021
1 15.9999 9.0003 26.0019
1 17.9995 8.99998 26.0009
1 4.00035 9.00106 28.0022
1 8.00031 9.00051 28.0033
1 10.0007 8.99908 28.0022
1 11.9999 9.00036 28.0027
1 13.9993 9.00006 28.0028
1 16.0006 8.99983 28.0023
1 5.99931 9.00059 30.0019
1 8.00016 8.99992 30.0022
1 9.99977 8.99979 30.0028
1 11.9997 9.0001 30.0025
1 13.9999 8.99973 30.0022
1 16 9.00022 30.0015
1 7.99952 9.00079 32.003
1 10.0005 9.00036 32.0036
1 13.9993 9.0005 32.002
1 3.99986 11.0002 4.00193
1 6.00021 11.0003 4.0033
1 7.99959 10.9994 4.00234
1 10.0006 10.9997 4.00231
1 12.0009 11.0003 4.00186
1 13.9996 11.0001 4.00299
1 15.9998 10.9996 4.00251
1 17.9999 11.0005 4.00155
1 5.99949 11.0003 6.00289
1 8.00027 11.0008 6.00182
1 9.99969 10.9993 6.00264
1 12.0001 10.9997 6.00281
1 13.9996 10.9991 6.00155
1 16.0002 11.0007 6.0013
1 3.99943 11 8.00172
1 6.00021 11.0007 8.00206
1 8.00042 11.0006 8.0025
1 10.0003 10.9996 8.00229
1 11.9998 11.0007 8.00252
1 14.0004 10.9998 8.00168
1 18.0002 11.0011 8.00061
1 6.0007 10.9999 10.0019
1 8.00028 11.0001 10.0029
1 9.99981 10.9999 10.0029
1 11.9995 11.0006 10.0026
1 13.9997 10.9999 10.0024
1 15.9994 11.0003 10.0014
1 18.0003 11.0003 10.0013
1 4.00006 11.0002 12.0023
1 6.00011 11.0011 12.0026
1 12.0005 11.0002 12.0029
1 13.9998 11 12.0022
1 16.0007 11.0004 12.0019
1 4.0002 10.9993 14.0014
1 6.00064 11.0008 14.0019
1 9.99972 11.0009 14.0021
1 12 11.0001 14.0025
1 15.999 10.9999 14.0018
1 14 11 16.0028
1 18.0003 10.9994 16.0014
1 4.00016 11.0003 18.0023
1 5.99978 10.9997 18.0026
1 7.99953 10.9996 18.0029
1 10.0001 10.9999 18.0025
1 13.9998 11.0003 18.0022
1 15.9998 10.9997 18.0015
1 18.0006 10.9991 18.0011
1 8 11.0005 20.0028
1 10.0001 10.9996 20.003
1 11.9997 10.9999 20.002
1 16.0005 11.0008 20.0014
1 9.99984 11.0008 22.0031
1 11.9993 11.0002 22.0028
1 16.0002 11.0002 22.0023
1 18 11.0001 22.0009
1 4.00061 10.9999 24.0025
1 7.9997 10.9991 24.0023
1 9.99981 11.0007 24.0024
1 11.9998 11 24.003
1 13.9996 11.0001 24.0018
1 15.9996 11.0001 24.0011
1 17.9997 11.0001 24.0013
1 5.99836 10.9995 26.0018
1 12 10.9997 26.0027
1 14.0001 10.9995 26.0025
1 18 11 26.001
1 4.00049 11.0003 28.0016
1 5.99979 10.9998 28.0028
1 10 11.0005 28.0024
1 11.9997 10.9997 28.0029
1 13.9999 10.9997 28.0024
1 15.9999 10.9999 28.0024
1 18.0002 11.0001 28.0014
1 8.00056 11.0001 30.003
1 10.0003 11 30.003
1 11.9992 10.9997 30.0024
1 16.0001 11 30.0015
1 18.0004 10.9987 30.0008
1 4.00025 11.0005 32.0018
1 5.99952 11.0001 32.0023
1 10.0006 11.0006 32.003
1 12.0007 11.0001 32.0034
1 13.9998 10.9999 32.0031
1 15.9998 10.9999 32.0021
1 6.00003 13.001 4.002
1 10.0001 12.9991 4.00317
1 12 12.9995 4.00211
1 18.0001 13.0006 4.00096
1 4.00064 12.9999 6.00246
1 6.00014 12.9995 6.00233
1 7.99972 13.0004 6.00253
1 11.9996 13.0005 6.00255
1 13.9999 13 6.0024
1 16.0007 13.0004 6.00165
1 4.00005 13.0005 8.00196
1 11.9999 13.0005 8.0026
1 4.00008 13.0001 10.0018
1 8.00002 13.0007 10.0032
1 13.9995 13.0004 10.0026
1 15.9996 13.0009 10.0015
1 3.99926 12.9999 12.0018
1 5.99979 12.9999 12.002
1 15.9995 12.9992 12.0017
1 17.9999 12.9992 12.001
1 3.99985 12.9991 14.001
1 9.99973 13.0003 14.0023
1 11.9996 13.0001 14.0024
1 13.9996 12.9996 14.0023
1 17.9986 13 14.0019
1 3.9995 13.0002 16.0012
1 8.00014 13.0003 16.0019
1 14.0003 13 16.0017
1 16 13.0008 16.0016
1 18.0001 12.9996 16.0009
1 4.00016 12.9995 18.0009
1 6.00015 13.0001 18.0021
1 8.00034 12.9999 18.0025
1 11.9999 13.0003 18.0024
1 13.9994 12.9999 18.0023
1 15.9999 13.0002 18.0017
1 3.99995 12.9999 20.0014
1 6.00008 13.0005 20.0022
1 7.99942 12.9993 20.0035
1 9.99996 12.9997 20.0023
1 15.9995 13.0005 20.0019
1 18 12.9999 20.0015
1 3.99936 12.9999 22.0025
1 5.9999 12.9996 22.0024
1 7.99928 12.9999 22.0025
1 15.9998 13.0002 22.0019
1 18.0001 13.0001 22.0006
1 4.00001 12.9997 24.0015
1 8.00021 12.9993 24.0029
1 14.0001 12.9998 24.0022
1 15.9998 13.0002 24.0016
1 18.0003 13.0002 24.0012
1 4.00097 12.9999 26.002
1 5.99968 13.0009 26.0018
1 7.9997 13.0004 26.0024
1 12 12.9995 26.0026
1 14.0005 12.9992 26.003
1 15.9998 13.0001 26.0016
1 4.00004 12.9997 28.0018
1 5.99995 12.9992 28.0027
1 8.00005 12.9994 28.0026
1 10.0004 12.9997 28.002
1 12.0006 12.9996 28.0019
1 14.0005 12.9996 28.0015
1 3.99977 13.0009 30.0025
1 7.99996 13.0007 30.0022
1 9.99985 12.9994 30.0033
1 14.0005 13.0001 30.0024
1 15.9999 12.9996 30.0013
1 4.00039 13.0006 32.0013
1 11.9998 13.0006 32.0024
1 16 12.9996 32.0022
1 6.00059 14.9997 4.00176
1 10.0004 14.9998 4.00199
1 11.9998 15.0004 4.00215
1 13.999 15.0001 4.0014
1 16.0002 14.9995 4.00212
1 17.9999 15.0002 4.00129
1 4.00082 14.9995 6.0017
1 6.00013 14.9998 6.00176
1 10.0003 15 6.00237
1 16.0005 15 6.00106
1 18.0003 15 6.00096
1 3.99985 15.0003 8.00114
1 5.99992 14.9993 8.0017
1 12.0001 15.0001 8.00121
1 14.0003 14.999 8.00143
1 15.9997 14.999 8.00137
1 17.9997 15 8.00062
1 5.99951 15.0001 10.0015
1 8.00019 15.0001 10.0017
1 9.99985 14.9995 10.0034
1 3.99991 14.9995 12.0013
1 5.99978 15 12.0022
1 7.99946 15.0001 12.0024
1 9.99969 15.0001 12.0025
1 13.9995 15.0002 12.0021
1 12.0003 15.0006 14.0022
1 13.9997 15.0002 14.0013
1 3.99981 15.0005 16.0012
1 5.99976 15.0002 16.0016
1 7.99994 15.0004 16.0027
1 15.9999 14.9999 16.0019
1 18.0004 15.0001 16.001
1 4.0002 14.9998 18.0024
1 6.00073 15.0001 18.0014
1 10.0007 14.9997 18.0022
1 12.0008 14.9997 18.0017
1 18.0007 15.0004 18
1 5.99937 15.0003 20.0007
1 8.00015 14.9999 20.0016
1 9.99957 14.9999 20.0017
1 11.9999 15.0006 20.0023
1 14.0005 14.9999 20.0019
1 18.0006 14.9997 20.0002
1 6.00039 14.9998 22.0025
1 8.00025 15.0002 22.0014
1 9.99975 14.9997 22.002
1 11.9996 15.0003 22.002
1 16.0004 15.0004 22.0018
1 18.0002 15.0003 22.0011
1 4.00039 15.0001 24.001
1 5.9998 14.9994 24.0021
1 10.0006 14.9997 24.0018
1 11.9999 14.9997 24.0019
1 14.0001 15.0002 24.0025
1 16.0001 14.9994 24.0013
1 17.9998 15.0001 24.0006
1 4.00006 15.0003 26.0013
1 6.00028 14.9999 26.0018
1 14.0003 14.9992 26.0019
1 16.0007 15 26.002
1 18.0001 14.9999 26.0006
1 3.9994 15.0001 28.0015
1 6.00017 15 28.0014
1 10.0001 15.0002 28.0027
1 12.0003 14.9999 28.0016
1 14.0004 15.0001 28.002
1 15.9999 15.0001 28.0014
1 4.00009 14.9991 30.0013
1 6.00005 15.0006 30.0018
1 12.0003 15.0002 30.0024
1 17.9997 14.9998 30.0008
1 3.99994 15.0001 32.0011
1 5.99996 15 32.0023
1 7.99929 14.9996 32.0015
1 12.0006 15.0002 32.0023
1 13.9994 15.0001 32.0015
1 16.0003 15.0004 32.0018
684
Atoms. Timestep: 20
3 7 1 40
3 9 1 40
3 11 1 40
3 13 1 40
3 7 1 42
3 9 1 42
3 11 1 42
3 13 1 42
3 7 1 44
3 9 1 44
3 11 1 44
3 13 1 44
3 7 1 46
3 9 1 46
3 11 1 46
3 13 1 46
3 7 1 48
3 9 1 48
3 11 1 48
3 13 1 48
3 7 1 50
3 9 1 50
3 11 1 50
3 13 1 50
3 7 1 52
3 9 1 52
3 11 1 52
3 13 1 52
3 7 1 54
3 9 1 54
3 11 1 54
3 13 1 54
1 3.99935 0.999897 4.0007
1 6.00073 1.0015 4.00059
1 10.0008 0.999677 4.0017
1 12.0004 0.999179 4.00168
1 17.9982 0.99984 4.00146
1 4.00001 0.999871 6.00114
1 6.00103 1.00019 6.00147
1 9.99922 0.999754 6.00268
1 11.9999 0.999169 6.00097
1 13.9999 0.999747 6.00162
1 15.9997 1.00022 6.00165
1 4.00144 0.999812 8.00105
1 5.99998 1.00045 8.00196
1 8.00002 1.00093 8.00206
1 9.99901 1.0009 8.00142
1 11.9995 0.999362 8.00227
1 16.0012 1.00043 8.00252
1 18.0001 1.00022 8.00073
1 4.00178 1.00027 10.0012
1 6.0002 0.999049 10.0014
1 8.00011 1.00043 10.0014
1 10.0001 0.999972 10.0026
1 11.9994 1.00047 10.0014
1 15.9993 1.00061 10.0013
1 10.0001 0.99986 12.0023
1 12.0005 1.00008 12.0002
1 13.9991 0.99919 12.0016
1 15.9995 0.999687 12.0022
1 4.0005 1.00013 14.0019
1 6.00004 0.998325 14.0007
1 7.99959 0.999684 14.0016
1 9.99991 0.999608 14.0004
1 14.0002 1.00071 14.0018
1 15.9993 1.00003 14.0009
1 17.9998 0.999021 14.0009
1 4.00034 0.999277 16.0003
1 6.00016 0.999778 16.002
1 9.99917 1.00131 15.9994
1 12.0002 1.00152 16.0006
1 18.001 1.00047 16.0015
1 4.00029 0.999515 18.0002
1 6.00072 1.00191 18.0007
1 8.00027 1.00032 18.0029
1 11.9996 1.00007 18.0009
1 15.9994 1.00108 17.9998
1 17.9997 1.00045 18.0005
1 4.00005 1.00105 20.0019
1 5.99992 0.999458 20.0013
1 7.99867 1.00039 20.0012
1 15.9995 0.999486 20.0028
1 3.99978 0.999524 22.0014
1 7.99842 0.999015 22.0018
1 10.0004 1.00172 22.0019
1 15.9997 1.00057 22.0009
1 18 0.999772 22.0008
1 3.99984 1.00004 24.0004
1 6.00063 0.999368 24.0007
1 8.00008 1.00018 24.0013
1 10.0006 0.999777 24.0027
1 12.0002 0.999579 24.0022
1 15.999 0.99898 24.0006
1 17.9994 0.999716 24.001
1 3.99981 0.999085 26.0015
1 5.99865 1.00084 26.0014
1 12.0004 1.00049 26.002
1 13.9997 1.00026 26
1 16.0003 1.00009 26.0008
1 3.99978 1.00058 28.0017
1 6.00109 0.999268 28.0018
1 10.0003 1.00048 28.001
1 14.0005 0.999356 28.0006
1 16.0007 1.00081 28.0016
1 17.9992 1.00021 28.0008
1 6.00139 1.00098 30.0019
1 10.0002 0.998822 30.0021
1 11.9991 1.00004 30.0013
1 14.0006 1.00019 30.0021
1 16.0002 0.999831 30.0019
1 6.00078 1.00003 32.0015
1 10.0017 1.00036 32.0008
1 12.0011 0.99969 32.0018
1 14.0006 1.00016 32.0026
1 17.9997 0.999734 32.002
1 6.00042 2.99945 4.00417
1 9.99975 2.99977 4.00418
1 11.9997 2.99946 4.00464
1 13.9978 3.00037 4.00318
1 17.9999 3.0013 4.00228
1 6.00027 2.99942 6.00437
1 8.00005 2.99928 6.00521
1 10.0002 2.99989 6.00428
1 3.99889 3.00004 8.00324
1 5.99855 2.99996 8.00333
1 7.99932 2.99929 8.0035
1 11.9997 3.00012 8.0044
1 13.9991 2.99967 8.00251
1 15.9994 2.99918 8.00287
1 18.0001 2.99959 8.00263
1 3.99965 2.99987 10.0043
1 16.0005 3.0005 10.0038
1 4.00084 2.99928 12.0041
1 6.00102 2.99912 12.003
1 7.99907 3.00036 12.0041
1 10.0005 3.00111 12.0039
1 11.9994 2.99994 12.0024
1 14.0009 3.00011 12.0037
1 16.0011 3.00104 12.002
1 4.00025 3.00036 14.0025
1 6.00103 2.9998 14.0044
1 10.0003 2.99986 14.0031
1 15.9999 3.00008 14.0033
1 17.9992 2.99877 14.0019
1 3.99975 2.99997 16.0029
1 9.99979 3.0005 16.0038
1 11.9995 3.00009 16.0034
1 3.99968 3.00006 18.0029
1 5.99953 2.99858 18.0023
1 7.99993 2.99973 18.003
1 9.99928 2.99851 18.0044
1 12.0005 3.00084 18.0025
1 16.0005 3.00001 18.0034
1 4.00038 2.99953 20.0029
1 8.00021 3.00046 20.0039
1 9.99956 2.9993 20.0037
1 11.9993 3.00018 20.0036
1 16.0007 3.00028 20.003
1 18.0006 3.00041 20.0007
1 3.99958 3.00097 22.0033
1 6.00057 3.00083 22.0038
1 8.00104 3.00042 22.0034
1 10.0002 3 22.0034
1 12 3.00027 22.0035
1 13.999 3.0015 22.0029
1 16.0007 3.00003 22.0034
1 17.9997 3.00024 22.0018
1 4.00043 2.99993 24.0032
1 6.0006 2.99941 24.0036
1 8.00095 2.9997 24.004
1 9.9988 2.99941 24.0044
1 11.9995 3.00075 24.0034
1 14.0004 2.99962 24.0035
1 16.0012 2.9995 24.0024
1 17.9986 2.99925 24.0018
1 4.00015 3.00029 26.0027
1 5.99931 2.99827 26.0035
1 9.9988 2.99976 26.0032
1 12 3.00043 26.0034
1 15.9991 2.99867 26.0027
1 10.001 2.9997 28.0029
1 12.0004 2.99961 28.0052
1 13.9991 3.0014 28.0034
1 15.9988 3.00038 28.0033
1 4.00043 3 30.0034
1 5.9999 3.00068 30.0033
1 8.00019 3.00073 30.0045
1 13.9987 3.00037 30.0037
1 16.0001 3.0005 30.0022
1 4.00005 3.00066 32.0016
1 6.00052 3.00074 32.0024
1 14.0001 3.00003 32.004
1 16.0001 3.00038 32.0037
1 17.9996 2.99822 32.0017
1 8.00042 4.99941 4.00563
1 12 4.99842 4.00585
1 13.9998 5.00132 4.00582
1 16.0003 5.00059 4.00397
1 17.9985 5.00105 4.00327
1 5.9985 5.00001 6.00484
1 7.99951 4.99969 6.00634
1 10.0003 5.00024 6.00589
1 11.9985 4.99914 6.00523
1 16.0009 5.00068 6.00438
1 18.0001 4.99973 6.00273
1 4.00094 5.00055 8.00398
1 5.9999 5.00052 8.00513
1 8.00001 4.99936 8.00461
1 9.99992 4.9989 8.00487
1 14.0007 4.99933 8.0065
1 16.0012 4.99938 8.00461
1 18.0005 5.00066 8.00283
1 7.99947 4.99949 10.0057
1 10 5.00037 10.0059
1 14.001 5.00037 10.0044
1 17.9986 5.00024 10.0017
1 3.99919 5.00029 12.0037
1 6.00012 5.00043 12.0052
1 7.99988 5.00029 12.0046
1 9.99918 5.0002 12.0061
1 12.0019 4.99966 12.0047
1 13.9997 4.99905 12.0042
1 16.0001 5.00009 12.004
1 6.00034 4.99997 14.004
1 7.99977 5.00052 14.0046
1 9.99969 5.00044 14.0057
1 11.9994 4.99989 14.0055
1 13.9998 5.00009 14.0048
1 16.0001 5.00064 14.0043
1 17.9999 4.99885 14.0022
1 4.00021 5.00026 16.0034
1 5.99929 4.99919 16.0054
1 11.9991 4.99842 16.006
1 16.0002 4.99932 16.0045
1 4.0002 4.99991 18.0039
1 5.99895 4.99969 18.0055
1 7.99923 4.9997 18.0043
1 9.99966 4.9993 18.0053
1 13.9991 4.99995 18.0052
1 3.99944 4.99978 20.0046
1 8.00046 5.0002 20.0052
1 10.0003 4.99997 20.004
1 11.9991 5.00009 20.0053
1 15.9994 4.9999 20.0047
1 18.0006 5.00159 20.0028
1 4.00081 5.00027 22.0038
1 6.00012 5.00104 22.0045
1 7.99952 5.00118 22.0059
1 10.0006 5.00068 22.0056
1 12.001 4.99923 22.0052
1 14.0004 5.00039 22.0054
1 5.99948 4.99965 24.0039
1 7.99934 5.00036 24.0052
1 10.0014 5 24.0055
1 13.9986 5.00049 24.0055
1 16.0004 4.99954 24.0035
1 17.9999 5.00026 24.0015
1 4.00011 5.00072 26.0021
1 6.00083 4.99989 26.0048
1 10 5.0005 26.0049
1 14.0001 5.00072 26.0041
1 3.99965 4.99922 28.0046
1 7.9997 4.99945 28.0061
1 10.0009 4.99954 28.0058
1 12.0004 4.99949 28.0052
1 14 5.00104 28.0053
1 17.9997 4.99943 28.0033
1 6.00022 4.99929 30.0053
1 8.00045 5.00101 30.0053