ITEM: TIMESTEP
0
ITEM: NUMBER OF ATOMS
684
ITEM: BOX BOUNDS ff ff pp
0.0000000000000000e+00 2.0000000000000000e+01
0.0000000000000000e+00 2.0000000000000000e+01
0.0000000000000000e+00 8.0000000000000000e+01
ITEM: ATOMS id fx fy fz
33 -0.000192789 -0.000129563 -3.93512e-05
34 3.87384e-05 0.00016389 -0.000236998
35 -8.07444e-05 -0.000129111 -0.000298448
36 -4.42891e-05 -0.000314911 -0.000284369
37 -0.000279364 -0.000105036 -0.000111499
38 0.000159589 -0.000166187 -0.000150625
39 0.000182906 -0.000179058 0.000287386
40 -7.59008e-05 0.000155067 0.000226573
41 -0.000321704 9.44784e-05 -5.12194e-05
42 -0.000190303 1.51622e-05 4.48711e-05
43 -3.10078e-07 0.0001429 0.000312264
44 0.000121277 -0.000131699 -0.000241897
45 -0.000189339 0.000177117 -0.000168838
46 -0.000265952 0.000309701 0.000216566
47 -0.000336614 0.000249646 -0.000100164
48 0.000200696 -0.000134552 0.000289337
49 0.000274839 -0.000186827 -0.000193543
50 0.000227385 2.03707e-05 -8.3047e-05
51 0.000307264 0.000225256 -9.52295e-06
52 0.000221188 0.000152976 -0.000184316
53 0.000291614 0.000245769 0.000311155
54 -0.000209431 -0.000169104 9.83159e-05
55 -6.77827e-05 0.000105891 2.61956e-05
56 -0.000305138 0.000126129 0.000266734
57 0.000272149 -7.38512e-07 -0.000317996
58 0.000279068 0.000322449 -0.000301635
59 0.000265294 -0.000205176 2.97935e-05
60 -0.000195376 -0.00027518 0.000140358
116 0.000308141 0.000196477 -0.000157305
117 -0.000249157 0.000124151 0.000190707
118 -0.00012686 0.000229014 0.000152318
119 0.000174065 5.04113e-05 -0.000114336
120 -0.000277422 -0.000129495 -2.3437e-05
121 -0.000136905 7.77644e-05 -8.71678e-05
122 0.000153531 0.000188771 0.000310052
123 -0.000234479 -7.72109e-05 0.000279677
124 2.34079e-05 0.000295285 4.38876e-05
125 -0.000219251 0.000152527 -9.79652e-05
126 -0.000227011 -0.000183455 2.93267e-05
127 -4.17907e-05 1.68389e-05 0.00023181
128 2.53902e-05 9.40898e-05 7.39369e-05
129 -0.000123972 -0.000308677 0.000283737
130 -7.80796e-05 0.000310646 0.000248825
131 0.000211496 0.000182835 0.000134054
132 -0.000232454 -8.43133e-05 7.72973e-05
133 -0.000199104 -2.12051e-05 6.33887e-05
134 0.000145006 -0.000255189 0.000284435
135 -0.000178884 0.000160352 -0.000293277
136 2.39726e-05 -5.20512e-05 4.70273e-05
137 -0.00020042 -0.000192827 -0.000302371
138 -2.4418e-05 -6.25152e-05 -4.92416e-05
139 0.000232652 2.48855e-05 0.000287078
195 -0.000222083 6.87734e-05 -0.000259232
196 -0.000201808 -0.000120835 0.000291565
197 0.000226535 -0.000280681 0.000252027
198 0.000169061 -1.60227e-07 -0.000100282
199 -5.30549e-05 8.47142e-05 3.7486e-05
200 -5.11357e-05 -0.000103686 -0.000289677
201 -0.000140189 -0.000282275 1.11373e-05
202 0.00023911 -0.000279814 -0.000148444
203 0.000144763 -6.48249e-05 0.000243307
204 -7.81747e-05 0.000178323 0.000168579
205 0.000263494 -0.000216085 0.000187849
206 0.000250537 0.00029168 0.000126253
207 0.000214335 0.000280528 0.000326308
208 0.000127617 0.000151587 0.000143802
209 -0.000307943 -0.000267801 0.000177813
210 -0.000117912 0.000190072 2.47903e-05
211 0.000100521 0.000207056 0.000295145
212 0.000204512 -0.000286319 0.0001023
213 -6.59121e-05 -4.58121e-05 0.000176626
214 -0.000273577 0.000175146 0.000235896
215 -0.00027746 0.000249906 -4.14289e-05
216 0.000153756 6.56481e-05 -0.000212738
217 -5.27905e-05 -0.000145497 3.88771e-05
218 0.000199227 -0.000274074 -3.82619e-05
219 -0.000258131 -0.000338356 0.000127823
220 -0.000308631 -0.000314921 -0.000272384
221 -0.000261844 -0.000177958 -0.000102618
222 -8.50338e-06 -0.000268104 0.000293295
223 0.000240552 -1.17667e-06 -0.000155567
280 -0.000258055 -0.00021535 -0.000119942
281 -0.00014906 -9.5782e-06 0.000201827
282 -0.000321353 -0.000256572 0.000137249
283 -0.000165521 -0.000276322 -7.68581e-05
284 -0.000254558 0.000205825 -0.000267355
285 0.000294949 0.000333441 -9.93338e-05
286 0.000283464 -8.90548e-05 0.000265829
287 0.000232382 -8.38784e-05 0.000321606
288 -0.000105941 3.18052e-05 0.000214167
289 0.000244314 0.000283625 -0.000109607
290 -0.000133231 -3.33079e-05 -8.75887e-05
291 -0.00022351 0.000337245 -0.000337529
292 0.000309974 0.000159263 -0.000165423
293 -2.17651e-05 0.000318622 -0.000244525
294 9.24006e-05 -0.00010389 4.80425e-05
295 -0.000309464 0.00030852 -0.000201916
296 0.000271844 -0.000335118 -0.000248151
297 -0.000328482 -9.74554e-05 -0.000101944
298 7.33883e-06 0.000338127 -0.000129152
299 -0.000236666 1.15727e-05 0.000245997
300 -6.58383e-05 0.000114471 0.000327124
301 -0.000310442 -0.000268325 0.000116309
302 0.000104889 8.42151e-05 0.000157903
303 -0.000118597 -0.00017099 0.000311284
304 0.000186544 -0.000328436 -0.000223175
305 0.000151797 0.000138256 0.00020387
362 -0.000304059 0.000228591 -0.000104052
363 -3.1747e-05 -1.4433e-05 0.000128628
364 0.000305359 -5.18683e-05 0.000256583
365 -0.000179941 -0.000189936 -8.55048e-06
366 -0.000195475 -3.93458e-05 -0.000223119
367 0.000280338 -0.000322493 0.00021341
368 0.000326806 -0.000187576 -0.000219252
369 0.000197828 -0.000180395 0.000195652
370 0.000313779 0.000153245 4.60047e-05
371 0.000194787 3.72191e-05 0.00013141
372 0.000266155 -0.000267783 -0.000242792
373 0.00010221 -0.000237915 -0.000236558
374 0.000248646 0.000244351 3.90236e-05
375 -0.000152602 -0.0001986 0.000166973
376 -4.08278e-05 -0.000148127 0.000118486
377 0.000117994 0.000302264 0.000155569
378 0.000249165 -0.000221438 0.000332867
379 -0.000204589 -0.000195905 2.67466e-05
380 -7.48235e-05 -9.89076e-05 -0.000315413
381 0.000232058 0.000166472 0.000244321
382 -0.000157356 -3.26407e-05 -1.28692e-05
383 0.000314571 0.000121224 -0.000335593
384 -0.000200747 0.00024336 -5.47058e-05
385 -0.000142691 9.1526e-05 0.000158102
386 -2.45394e-05 -0.000239038 3.64309e-05
387 8.72053e-05 -0.000282787 9.09103e-06
388 -0.000125771 -0.000311624 0.000325633
389 7.49119e-05 0.000218201 1.62666e-05
390 -0.000111453 0.000178696 0.000245623
391 5.11023e-05 0.000108939 -9.67266e-05
61 0.000223841 -6.26519e-07 -8.00415e-05
62 -0.000320092 -0.000217677 -0.000245577
63 0.000315407 0.0003264 -2.00938e-05
64 8.10425e-05 -0.000251778 -0.000323712
65 0.00030647 0.000210966 0.000205851
66 -6.54871e-05 0.000334274 6.65477e-05
67 0.000192968 -3.80163e-05 -5.0991e-05
68 3.40802e-05 -2.40608e-05 5.10699e-05
69 5.47466e-05 -0.000206934 -0.000280502
70 -0.000101884 0.000145585 -0.000153234
71 -6.50065e-05 0.000173065 -0.000170781
72 2.07205e-07 -8.13798e-05 3.08558e-06
73 -0.000258855 0.00013628 -7.9773e-06
74 0.000247687 -0.000277605 0.00011231
75 5.46272e-05 -0.000324428 -0.000193805
76 -0.000182354 -0.000296916 -0.000153814
77 0.000111198 0.00031999 1.09747e-05
78 -0.000294075 -7.88295e-05 -0.000288159
79 -5.48777e-07 -0.000113225 -0.000247742
80 0.000223602 -0.000232683 -0.000282829
81 0.00024705 -0.000285753 0.000317609
82 -0.000325129 -0.000225244 -5.43743e-05
83 -0.000251746 9.92027e-05 0.000117638
84 -0.000251485 -8.69234e-05 -0.000273151
85 0.000188818 -9.42752e-05 0.000177162
86 -0.000215333 0.000205696 0.000226272
87 0.000220242 -0.000219248 -6.84072e-05
88 0.000115954 3.99336e-05 -0.000128314
89 7.85129e-05 -9.15373e-05 -0.000196185
90 7.36173e-05 -9.01635e-05 -0.000141183
91 5.06112e-05 -4.95647e-05 -0.000180957
92 -0.00014461 -0.000334742 -6.00932e-05
93 0.000104707 -0.000336756 0.00025819
94 6.36867e-06 -0.000274378 0.000119855
95 9.12986e-05 0.000117943 -5.46147e-05
96 0.000127206 0.000141657 -0.000152348
97 -0.000201565 0.000317841 -0.000168017
98 0.000143151 -5.84763e-05 -0.000179334
99 -0.000321169 0.000191524 -0.00024099
140 -0.00015054 -0.000265197 9.1563e-05
141 0.000207144 4.82323e-06 0.000104415
142 0.000149306 5.83209e-05 6.74042e-05
143 4.24906e-05 -4.89282e-05 0.000224747
144 2.63539e-05 0.000269027 -9.72537e-05
145 -0.000130745 0.000198313 -0.000170563
146 2.39889e-05 -0.000116769 -0.000159252
147 -0.000320936 -8.28166e-05 0.000142386
148 -4.75513e-05 -0.000245254 -0.000243737
149 -0.000101549 -4.6887e-06 -4.48178e-05
150 9.82547e-05 0.000270796 -0.000131254
151 -0.000120781 -8.82923e-05 -0.000247475
152 -0.00018732 0.000116566 -0.000129058
153 8.61578e-05 0.000337243 0.00010561
154 -0.000315924 0.000123041 0.000259503
155 0.000258987 0.000129195 -0.000203385
156 0.000158795 -0.000229133 -6.54745e-05
157 -0.000136001 9.69478e-05 0.000166589
158 0.000229933 -9.04289e-05 -0.000264381
159 0.000256385 7.82798e-05 -5.24749e-05
160 0.000266431 -1.58467e-05 0.000258515
161 0.000257447 -7.80455e-05 -0.000215824
162 -2.06919e-05 -0.000153157 0.000152498
163 -0.000328455 -0.000130293 0.000325407
164 0.000289052 -0.000295465 5.62887e-05
165 -0.000297338 -0.00026125 0.000151109
166 -0.000303239 -0.000115015 0.000247071
167 -9.06543e-05 -0.000101061 7.21775e-05
168 0.000280399 -0.000140507 0.000114555
169 6.74587e-05 -3.11746e-05 0.000292405
170 0.000276066 -0.000284472 -4.5091e-05
171 -0.000174602 0.000276094 0.000144647
172 2.34527e-05 7.96177e-05 -0.000267039
173 0.000204841 8.31084e-05 -0.000114614
174 9.61519e-05 0.000253134 1.67014e-05
175 -0.000307638 -0.000117813 -0.000250733
176 6.79017e-06 8.25615e-05 0.000223129
177 -5.85822e-05 2.99551e-05 0.00030718
178 -9.37488e-05 -0.000258569 -0.000262313
179 -0.000202764 -0.00031332 -2.00106e-05
180 -0.000117489 0.000101459 -0.000109571
224 0.000218539 -0.000128546 3.91866e-05
225 -0.00024121 -0.00023858 -0.00030437
226 -0.000274973 -1.04128e-05 -1.04591e-06
227 -0.000321856 0.000170284 0.000302115
228 0.000155977 -0.000155567 -3.78278e-05
229 -0.0003149 6.40251e-05 0.000266132
230 -0.000224708 9.25802e-06 4.91506e-05
231 0.000308535 0.000212399 -0.000142501
232 5.23079e-05 -0.000223177 0.000323769
233 -3.59171e-05 -0.000231796 0.000144817
234 -0.000301435 0.000310636 -2.6218e-05
235 -0.00017483 0.000121383 -1.8375e-05
236 0.000166604 -0.000206871 -0.000166321
237 -2.32441e-05 0.000217581 -0.000294029
238 -3.73428e-05 -2.01522e-05 -0.0003236
239 -9.15399e-05 -0.000186129 0.000101898
240 -0.000319085 -6.13528e-05 8.28819e-05
241 -6.37299e-05 0.00023824 1.67931e-05
242 -0.000250283 -0.00018162 -0.000206905
243 8.17771e-05 0.000195705 0.000218137
244 -0.000216924 0.000242111 7.71176e-05
245 -0.00020286 0.000159013 0.000245583
246 0.000263797 0.000148326 -0.00031103
247 -0.000317204 0.00024533 -0.000108833
248 -0.000288314 0.000252994 0.000273093
249 0.000128937 -4.7266e-05 4.33848e-05
250 -0.000114855 -3.43516e-05 0.000177698
251 9.59837e-05 -0.000274004 -3.22146e-05
252 -0.000114814 0.000291789 0.000231995
253 -0.000273513 0.000247178 -0.000262136
254 -0.000244308 1.15652e-05 0.00018883
255 -0.000132609 0.000301161 0.000315324
256 1.44938e-05 0.000290983 0.000167582
257 -5.26784e-05 9.26494e-05 0.000184856
258 -0.000244538 0.000212608 -0.000218478
259 0.000280623 -0.000271243 -0.000168979
260 -0.000262771 7.7547e-05 -1.43955e-05
261 -0.000108195 -0.000155517 0.000321611
306 0.000235653 -0.000254977 4.74523e-05
307 -0.000199835 -3.67999e-05 0.000237111
308 1.79403e-05 2.31054e-06 -0.000133638
309 2.57014e-05 -0.000279605 0.000337535
310 -1.42229e-05 9.60394e-05 0.000324168
311 -8.1633e-05 -0.000196481 -0.000146646
312 0.000244109 -8.60175e-05 -0.000241447
313 -0.000141281 -0.000145098 0.000157035
314 0.000136608 -0.00010465 0.00012053
315 0.000221128 -0.000256909 5.06965e-05
316 6.27455e-05 -6.63323e-07 9.01942e-05
317 -4.93919e-05 -7.5152e-05 0.000234642
318 -0.000109297 -0.000229155 -0.00012415
319 -0.000300042 0.000314522 0.00019462
320 -0.000312066 -0.000131568 2.05796e-05
321 -0.000162434 -0.000242421 0.000201576
322 0.000324168 8.74521e-05 0.000232399
323 -0.000307459 0.000326746 -5.10019e-06
324 -0.000149176 -1.45871e-05 -0.00014519
325 0.000205588 -6.70892e-05 -0.000158219
326 0.000142087 9.21062e-05 0.000175256
327 5.47885e-06 0.000297426 0.000146833
328 0.00015843 -0.000268187 0.000138875
329 5.32411e-05 -2.21558e-05 2.37523e-05
330 5.83311e-07 -0.000285901 -0.000279904
331 3.4268e-05 -0.000157416 -0.000245572
332 0.000261858 -0.000328764 -0.00018602
333 -0.00012176 0.000204949 -0.000164448
334 9.78379e-05 2.45219e-05 -0.000236294
335 -0.000213052 -0.000218319 -0.000329328
336 -0.00026759 0.000221548 0.000283217
337 0.000201221 -0.000212376 -3.25952e-05
338 0.000244532 0.00017688 0.000147095
339 6.8149e-05 -0.000122299 -5.60733e-05
340 -6.6307e-05 0.000100172 -0.000331144
341 -0.000133671 -5.76257e-05 -5.8676e-05
342 -0.000125486 2.46921e-05 -0.000146668
343 -0.000115716 -0.000300674 -0.000248014
344 4.78149e-05 -0.000257918 9.16058e-05
345 -1.58568e-05 -0.000212153 -0.000324933
346 0.00026421 -0.000120728 5.92768e-05
392 -0.00014706 -0.000225348 0.00022523
393 0.000245053 0.000300921 -0.000312047
394 -0.000188064 5.02549e-05 -0.000315499
395 -0.000296537 -0.000139776 -1.56067e-05
396 -0.000270146 -0.000302265 -0.000306194
397 -0.000313315 9.42369e-05 -9.39933e-05
398 -0.000244814 -0.000267753 0.000133872
399 0.000177139 0.000114911 0.000135788
400 0.000295158 -0.000308746 0.00028619
401 -0.000307973 5.45006e-05 -6.79094e-05
402 0.000202629 -0.000111466 -0.000253894
403 0.000171566 0.000180382 -9.92451e-06
404 -0.000316376 -0.000231768 0.000303368
405 0.000339045 -0.000257455 -8.0655e-06
406 1.02563e-05 7.81136e-05 0.0001888
407 0.00011947 -0.000241359 -0.000213662
408 0.000109709 0.000326582 -4.66498e-05
409 0.000326267 -0.000193173 -0.000195137
410 0.000214594 -2.86974e-05 -9.2643e-05
411 -0.000311158 0.000185254 -0.000172745
412 -0.000209177 -0.000238155 0.000189241
413 0.000117946 0.000124 -0.000294243
414 0.000332251 -0.00012834 -4.13779e-05
415 7.50757e-05 -0.000102183 0.000285312
416 -0.000149927 -2.15267e-06 -0.000131737
417 0.00022642 -0.00022145 0.000144595
418 9.28623e-05 0.000281386 -4.00443e-05
419 -5.42125e-05 -2.76436e-05 0.000125988
420 -0.000108036 7.25786e-05 0.000199836
421 0.000153019 0.00032236 -0.000289205
422 -9.09448e-05 0.000295465 8.73883e-05
423 0.000321294 -0.000110395 6.75559e-05
424 -5.09234e-05 4.69386e-05 1.71156e-05
425 0.000151452 0.000262088 -0.000138785
426 0.000122077 5.35414e-05 0.000214617
427 -8.56757e-05 9.57639e-05 1.23316e-05
428 8.85968e-05 -8.78517e-05 -0.000175762
429 0.000182294 0.000296902 -2.39252e-05
430 0.000112265 0.000245129 -0.000301221
431 -3.53497e-05 0.000137556 0.000258323
432 -4.37621e-05 0.00025652 -0.000105597
433 -7.87004e-05 -6.89884e-05 0.000131783
434 8.57203e-05 -0.000261863 0.000236377
435 -0.000157351 -0.000199532 0.00014936
436 0.00013497 2.81358e-05 0.000143838
100 8.99586e-06 -6.49534e-05 -0.000144787
101 3.61498e-05 -6.55164e-05 -0.000129706
102 0.000231134 0.000282037 6.76842e-05
103 -2.75451e-05 -4.94596e-06 -0.0003228
104 6.13433e-05 7.33883e-05 0.000283072
105 0.0001406 0.000294517 0.000334544
106 0.000197579 0.000305021 1.78888e-05
107 -0.000216471 -0.000179443 0.000205426
108 -0.000188453 0.000214362 -0.000267609
109 -8.40708e-05 -5.00072e-05 -0.000181871
110 -0.000299176 -7.7215e-06 -7.4832e-05
111 -3.54792e-05 0.00010841 -4.42659e-05
112 0.000261093 -0.000144634 0.000161131
113 5.1783e-06 -0.000228437 0.000254845
114 6.71512e-05 0.000126992 0.000134669
115 -3.30166e-05 0.000135592 -0.000201159
181 5.15754e-05 6.2427e-05 -0.00022734
182 0.000222546 -7.51795e-05 0.000142271
183 0.000210484 0.000289972 -0.000308504
184 -0.000258503 -0.000181172 9.55806e-05
185 -0.000217727 9.47341e-05 0.000240305
186 6.59095e-05 -0.00032235 -0.000288404
187 7.6516e-05 -0.00028057 -0.000252248
188 -0.000245434 -0.000299872 0.000233941
189 0.000268798 -0.00025273 -8.90343e-05
190 -0.000269715 6.48578e-05 -0.000154877
191 0.000130716 -0.000235796 0.000314113
192 -8.64939e-05 -0.000175346 0.00024842
193 6.3651e-05 0.000326745 0.000264761
194 7.24817e-05 0.000322044 -0.000125268
262 -0.000126908 3.15224e-05 -0.000267992
263 -5.72844e-05 0.000234297 0.000254996
264 0.000316935 0.000225535 -0.000252139
265 0.000293392 -0.000218395 -3.81308e-05
266 0.000201118 0.000246618 7.39613e-05
267 0.000135004 0.000191525 -0.00031935
268 -0.000146272 0.000213552 7.55535e-05
269 0.000309898 0.000164159 7.84196e-05
270 0.000149275 -0.000268616 -0.000274688
271 -6.67979e-05 -0.000253999 0.000155265
272 -0.000317396 2.9447e-05 -0.000170236
273 0.000339717 -4.95305e-06 -4.11532e-05
274 -7.34725e-05 -0.000172106 -0.000271129
275 -8.99256e-05 -0.000328951 -7.71664e-05
276 0.000214911 -1.77527e-05 -0.000293491
277 8.32774e-05 0.000192077 -0.000238659
278 -0.000186198 -0.00012016 8.07772e-05
279 0.000225629 8.37189e-06 -5.47993e-05
347 -0.000315642 -0.000286947 0.000119897
348 6.95277e-05 -0.000112505 -9.39065e-05
349 0.000225907 0.000111543 9.2019e-05
350 0.000276457 0.000289868 0.000197103
351 0.000274156 -6.42596e-05 -8.5377e-05
352 -0.000277265 -4.27747e-05 -2.17579e-05
353 0.000141238 -0.000304627 7.67864e-05
354 0.000123284 -7.01655e-06 -0.000155495
355 0.000311803 -0.000131919 8.75424e-05
356 -0.000171002 -0.000107467 0.000336421
357 0.000282088 -0.000264873 -0.000257961
358 0.000183013 6.39636e-05 -0.000121479
359 -1.71225e-05 0.000290394 0.000165111
360 9.35662e-05 0.000325904 0.000225212
361 -9.62858e-05 0.000198917 8.03329e-05
437 1.40184e-05 0.000193363 0.000136284
438 -2.09072e-05 0.000116794 0.00031463
439 -1.57866e-05 -7.42007e-05 2.28827e-05
440 -0.00021313 -0.000213358 0.000290873
441 -3.88284e-05 9.61571e-05 0.000243469
442 0.000301391 4.11574e-05 0.000267346
443 -0.000186099 0.000225428 -0.000297001
444 0.00016657 -1.3304e-05 6.45002e-05
445 0.000264325 -0.00020508 4.32546e-05
446 0.000154285 -0.00024046 -0.000162704
447 0.000269364 0.000114335 0.000198502
448 -0.000141162 -4.25737e-05 0.000226126
449 -8.54851e-05 0.00026827 0.000141661
450 -0.000325947 0.000334797 0.000315303
451 -9.42021e-05 -8.69834e-05 -0.000172162
1 0.000234379 -0.000237948 0.000127505
2 0.000220965 -4.94327e-05 0.000208812
3 1.39999e-05 0.000129429 0.000175165
4 -8.27773e-05 0.000250396 0.000291058
5 0.000328384 -0.000314352 -0.000102804
6 0.000303805 -0.000195983 -0.000178298
7 0.000301512 0.000126417 0.000255591
8 0.000312038 0.000114792 -0.000211121
9 -0.00029561 -3.93486e-05 0.000150777
10 0.000144915 0.000237462 -0.00024432
11 -0.000306158 -0.000289059 -0.000177088
12 -0.0001171 5.76e-05 -6.98529e-05
13 6.30487e-06 -0.000184439 -0.000203446
14 0.000248139 0.000148819 0.000292069
15 3.33131e-05 -0.000256762 -0.000307314
16 0.000285435 0.000121786 0.000145746
17 0.000240136 -0.000272671 0.000278632
18 -0.000210107 -0.000281089 -6.21913e-05
19 0.000184965 1.99277e-06 -0.000243293
20 -0.000299794 9.64289e-05 -9.80945e-05
21 0.000224495 0.000111918 -0.000211718
22 0.000105512 0.000230348 0.000203897
23 -0.000193673 0.000250847 -0.00013253
24 -2.30683e-05 -0.000301444 0.000237744
25 0.000275977 1.1951e-05 0.000273807
26 -0.000159543 -0.00010805 0.000286768
27 0.000226952 -0.00028221 -0.000251565
28 -6.18499e-05 0.000153393 -7.59315e-05
29 -0.000320391 -0.000198998 0.000195315
30 0.000314346 -6.35809e-06 1.47888e-05
31 0.000303274 8.56202e-05 -0.000208028
32 7.33016e-05 -4.73772e-05 -0.000258305
452 3.88545e-05 0.000281356 0.00014406
453 -5.5686e-05 0.000171277 1.37149e-05
454 -0.000223113 7.1677e-06 -4.71389e-05
455 0.000326361 -0.000188626 -1.43229e-05
456 0.000331732 -5.53453e-05 -0.00033471
457 8.98613e-06 0.000143119 0.000141578
458 0.000286815 0.000312439 0.00023328
459 -0.000171602 0.00028379 0.000199981
460 -0.000252885 -0.000277439 0.000188658
461 -1.51473e-05 0.000109218 -0.000318405
462 -1.20266e-05 0.000102504 0.000142898
463 -7.19603e-05 -0.000131795 0.000118242
464 0.000172795 -0.000126352 -8.78841e-06
465 0.000258321 0.00027414 7.6474e-05
466 7.71943e-06 0.000193636 -6.13232e-05
467 -1.88044e-05 0.000165455 -0.000318721
468 0.000299897 3.54978e-05 1.89175e-05
469 0.000185732 -0.000202014 -0.000275189
470 4.95028e-05 0.000250981 0.000177686
471 0.000188461 -0.000156197 -0.000140043
472 -0.000245046 0.0001157 -0.00012848
473 0.00032223 0.000330975 -0.000290847
474 0.000260264 0.000193217 7.31292e-05
475 1.70486e-05 -0.00019991 -0.000240201
476 -0.000230501 -6.34323e-05 0.00028983
477 7.27879e-05 -0.000244823 -0.000256236
478 0.000106133 2.52075e-06 -9.03631e-05
479 -0.00018937 -8.59144e-05 -0.000235066
480 -0.000325056 0.000167918 8.16902e-07
481 2.09988e-05 3.0238e-05 -0.000219121
482 -6.757e-05 5.00662e-05 8.83849e-05
483 4.03628e-06 0.000144342 -0.000102544
484 -5.79781e-05 0.0002821 9.66145e-05
536 -0.00028154 -0.000103987 -0.000126714
537 8.20571e-05 -0.000307591 0.000273234
538 -0.000160551 -0.000323898 -0.000201864
539 -0.000180297 0.00011359 4.81788e-05
540 -0.000283303 -0.000205772 0.000331497
541 5.91849e-05 -0.000268812 0.000216217
542 -0.000142731 -5.03022e-05 0.000202412
543 -0.000271358 0.000256821 0.000111847
544 5.66155e-05 4.54267e-05 -0.000238305
545 -0.000271327 0.000204999 0.000196637
546 -0.000177314 0.000258034 1.39062e-05
547 0.00027232 -0.000220459 -0.000186625
548 3.24193e-05 0.000319398 6.46458e-05
549 -6.9014e-05 0.000335831 2.99357e-05
550 6.36616e-05 0.000122546 2.43855e-06
551 0.000159996 0.000331306 -0.00016011
552 -0.000274156 -0.000149123 -3.16139e-05
553 -0.00011562 -0.000253135 5.88256e-06
554 3.65774e-05 -0.000170573 -6.00044e-05
555 0.000321634 -0.000141959 0.000132741
608 0.000231836 -0.000163559 0.000163801
609 0.000226182 -2.78325e-05 -0.00022053
610 -0.000288779 -0.000221859 -0.000162398
611 -0.000111481 -7.85074e-05 -2.6465e-05
612 9.06791e-05 -0.000220956 7.7582e-05
613 -0.000337335 0.000276402 -7.68813e-05
614 -1.70703e-05 2.28665e-05 0.000247959
615 -0.000156925 -6.16953e-05 -5.60091e-05
616 0.000171149 -4.09322e-05 1.95421e-05
617 4.97414e-05 3.86643e-05 -0.000324047
618 0.000322917 0.000332383 -0.000171789
619 -0.000207517 -0.000137335 0.000185636
620 0.000248022 -0.000245896 -0.000245424
621 0.00011035 -0.000117577 -0.000256433
622 -9.63033e-05 -0.000252809 -0.000157946
623 0.000157196 0.000120621 -0.000253809
624 -0.000274081 -0.000229016 -0.00016798
625 -6.03004e-05 -6.22968e-05 -0.000305134
626 0.000215001 7.10763e-05 -0.00021196
627 0.000123849 0.000172414 0.000270339
628 -0.000274612 -8.51388e-06 -2.67699e-05
629 3.28186e-05 0.000300583 0.000231272
630 -0.000111141 -0.000245021 0.000177609
631 0.000181348 -0.00011613 -0.000299128
632 -0.000310816 -0.000233623 -0.000177566
485 -0.000121091 0.000125028 -3.92591e-06
486 0.000230561 0.000115496 7.96172e-05
487 0.000168611 -0.000125131 -0.000206139
488 -0.00030745 -0.000101909 3.30562e-05
489 -0.000208272 0.000265363 0.000123449
490 4.61719e-05 -3.56907e-05 -5.14424e-05
491 6.88918e-05 5.63067e-05 -0.000159693
492 -0.00026322 -8.02417e-05 -0.000222901
493 8.52327e-05 0.000225278 0.000140523
494 0.000236701 -0.000251759 -0.000144306
495 0.000282457 0.000197434 -8.10129e-05
496 0.000338224 0.000220401 1.88178e-05
497 7.58482e-06 2.8915e-06 -0.000217476
498 8.84884e-05 7.31534e-05 -5.26616e-05
499 -4.9862e-05 0.000143814 -0.000197558
500 4.22146e-05 -2.28269e-05 2.88939e-05
501 -0.000106683 -6.36466e-05 0.000114698
502 -0.000113711 7.94369e-05 -6.11132e-05
503 -3.69783e-06 1.80571e-05 0.000283857
504 -5.56321e-05 -0.000292314 0.000286171
505 0.000140995 0.000143121 7.85076e-06
506 -0.000195049 -1.33376e-05 -0.000183128
507 0.000257108 -9.48135e-05 -5.98779e-05
508 -0.000176304 -2.26981e-05 -8.20535e-05
509 -8.68436e-05 1.11923e-05 0.000201631
510 9.58507e-05 2.59669e-05 -0.000118293
511 -0.000297053 0.000242962 -9.16725e-05
512 4.57749e-05 -3.45993e-05 -0.000161901
513 -0.000233771 -0.000148057 0.000210681
514 -0.000312592 -0.000175968 -6.0605e-06
515 0.00017822 5.02164e-05 -0.000194203
516 -2.33097e-05 0.000201169 -0.000296774
517 -3.29714e-05 -0.000213564 -0.000167432
556 0.000253661 -0.00020974 -4.94877e-05
557 -0.000338719 -9.30781e-05 -1.72119e-05
558 0.000216822 0.000327729 -2.69484e-05
559 -0.00015598 -1.71725e-05 0.000230944
560 -0.000101988 0.000271004 0.000153997
561 0.000311051 0.000141981 -0.000113081
562 5.30424e-05 0.000174054 0.000308547
563 0.000319382 0.000121114 -0.000278527
564 -0.000237309 0.000297124 -0.000316694
565 -6.98822e-05 -0.000237375 -0.000194234
566 0.0002538 -0.000196179 -4.98819e-05
567 0.000317726 -0.000279916 -0.000134609
568 0.000244508 -6.49471e-05 0.000154104
569 0.000104508 0.000306654 -0.000194803
570 -9.68892e-05 0.000314328 0.000311423
571 0.000326298 0.00012798 -8.17545e-05
572 0.00024979 -0.000179328 -0.000100896
573 -9.73173e-05 0.000149339 -0.000333177
574 0.00023204 -0.000278959 0.000194252
575 -0.00031829 -7.61563e-06 0.00023855
576 0.000166722 -0.000238464 0.000210359
577 -9.72128e-05 -0.000256807 0.000235258
578 0.000212839 0.000324276 -3.72032e-05
579 -0.000165422 -0.000230536 -4.12989e-05
580 -0.000171042 -0.000168716 -0.000106921
581 -3.88415e-05 -0.000318566 -0.000145425
582 -0.000184681 -0.000218695 0.000220919
583 7.23261e-05 5.97946e-05 -0.000302701
584 -0.00031732 -9.69663e-05 0.000152396
585 6.73384e-05 -0.000287191 0.000101878
586 2.21716e-07 0.000170694 -0.000220772
587 -0.000336633 -3.74233e-05 0.000323445
588 0.00030737 -0.000161752 -0.000126935
589 -0.000314041 0.000275575 -0.000167115
590 -0.000332808 0.000276593 -0.000171516
591 -8.61976e-05 9.2697e-05 -0.000200068
592 0.000290221 -0.000132765 -0.000302692
593 -7.01899e-05 -0.000248901 0.0001327
633 0.000336483 0.00014536 0.000259088
634 3.84221e-05 0.000139156 1.77895e-06
635 -2.55163e-06 2.3417e-05 -0.000200997
636 0.000277125 -1.63141e-05 -0.000162119
637 0.000307135 8.61815e-05 0.000265619
638 5.82115e-05 -0.000154868 0.000202957
639 0.000165592 0.000265345 2.88018e-05
640 4.3768e-05 -0.000304976 -2.44995e-05
641 -0.000301022 -7.17507e-05 0.000262453
642 7.95115e-05 0.000147594 -0.000250575
643 0.000297472 -0.000242082 -6.25161e-05
644 0.000122385 -5.26911e-05 -0.000289542
645 -0.000241139 -0.000146434 -0.000209803
646 -0.00010204 -0.000330298 -0.000164988
647 -8.66912e-05 -0.000234859 -0.000183987
648 0.000105834 0.000329469 0.000300691
649 -4.96467e-05 -0.000228765 -0.000164901
650 -0.000178761 -9.6481e-05 -0.00029483
651 0.000189694 3.89164e-05 7.10188e-05
652 3.95579e-05 0.000188619 -0.000115057
653 -0.000128753 7.41617e-05 6.85387e-05
654 0.000270357 0.00029154 -0.000270335
655 0.000172552 -3.67693e-05 5.06571e-05
656 -0.000118162 1.2328e-05 3.14204e-05
657 -5.70517e-05 -0.000300229 1.51863e-05
658 -0.000144323 0.000198237 7.67956e-05
659 -0.000221936 -0.000151393 -0.000281484
660 -0.000266108 3.61575e-05 0.00019213
661 7.35543e-05 0.000135833 -0.000106227
662 -4.85755e-05 -0.000182257 0.000274787
663 0.000323736 0.000295186 -0.000193903
664 -3.98813e-05 0.000299959 -0.000242907
665 0.000247128 5.99493e-05 6.09229e-05
666 4.20173e-05 -0.000339106 -1.55455e-05
667 0.000326149 -0.00017845 0.000138679
668 0.00031299 -1.55203e-05 -0.000314122
518 0.00031288 -3.92828e-05 -0.000316097
519 -0.000240933 -0.000299753 -0.00015041
520 0.000160582 7.09492e-05 0.000112802
521 2.68151e-05 -3.37788e-05 9.01219e-05
522 -9.39859e-05 -0.000158082 -0.000273666
523 0.000246772 0.000114185 -2.82427e-05
524 -0.00022232 0.000288522 0.000171438
525 0.000245755 0.000199465 -0.000295362
526 0.000287793 0.00024433 1.94005e-05
527 -0.000109248 0.000326647 -0.000335542
528 -7.71343e-05 -0.000300561 0.000170143
529 0.000257242 -0.000312677 0.00015943
530 0.000329147 -0.000102282 -0.00029492
531 -0.000219715 0.000263465 -0.000293173
532 4.38097e-05 0.000157605 -7.41094e-05
533 -0.000120951 -6.85573e-05 0.000267383
534 0.000247689 0.000139157 2.38452e-05
535 0.000317243 -0.000268793 -0.000174758
594 -0.00013594 -0.000121206 4.15732e-05
595 0.000106082 -0.000291013 0.000287105
596 -1.93133e-05 -0.000303819 -0.000266976
597 0.000155245 -0.00027736 8.66509e-05
598 -1.05486e-05 -0.000115438 0.000130534
599 0.000148106 -0.000218819 -0.00017642
600 0.000126414 3.17108e-05 -0.000107167
601 -2.93885e-05 8.03997e-06 -0.0003137
602 0.000110553 8.75625e-05 0.000324171
603 -1.78222e-05 1.32498e-05 0.000299743
604 8.26351e-05 0.000221781 -0.000323644
605 -0.000137139 0.000110446 0.000108449
606 -0.000177619 3.42092e-05 -0.000177788
607 9.22524e-05 -0.000291133 -0.000100554
669 -7.81911e-05 -0.000195601 7.85084e-05
670 0.000209146 1.94217e-05 2.48817e-05
671 -0.000213125 9.50133e-05 0.000273235
672 0.000322507 -3.85559e-05 -0.000330051
673 2.63245e-05 0.000115041 2.90691e-06
674 -0.000226678 -5.30276e-05 -0.00011197
675 -0.000282183 -0.00019708 0.000337521
676 6.77676e-05 0.00031319 -0.000237484
677 7.14681e-05 3.72599e-05 0.000306047
678 -2.59265e-06 -3.28165e-05 0.000245296
679 0.000303352 -0.000104665 -0.000208418
680 -0.000129855 -0.000295124 -0.000148869
681 -0.000177178 -0.000187516 -0.000314152
682 4.14693e-05 0.000118789 5.39698e-05
683 -0.000241687 8.65793e-05 0.000122091
684 -0.000155746 1.8949e-05 -0.000186302
ITEM: TIMESTEP
10
ITEM: NUMBER OF ATOMS
684
ITEM: BOX BOUNDS ff ff pp
0.0000000000000000e+00 2.0000000000000000e+01
0.0000000000000000e+00 2.0000000000000000e+01
0.0000000000000000e+00 8.0000000000000000e+01
ITEM: ATOMS id fx fy fz
33 -7.59917e-05 -0.000252026 -0.000132365
34 -3.07703e-05 3.08842e-05 0.000113128
35 3.23834e-05 -0.000320166 -0.000104903
36 -0.000187738 0.000247341 -0.000376034
37 -0.000137568 8.15368e-05 0.00010308
38 -2.99976e-06 -0.000216841 0.000321823
39 5.35387e-05 -8.46696e-06 -7.0509e-05
40 0.000396157 -0.000139456 -0.000190219
41 -0.000183758 0.00030232 -7.24723e-05
42 0.000278101 -0.000112822 0.000178544
43 0.000250429 -0.000187581 9.3539e-05
44 -5.22217e-05 1.18278e-05 -0.000198772
45 0.000110475 -0.000331415 -0.000220664
46 -0.000327139 0.000187612 -0.000183137
47 -0.000235323 9.00944e-05 -0.000128646
48 -7.20422e-05 0.000212241 0.000100094
49 7.8779e-05 8.52031e-05 0.000208784
50 0.000420915 -3.30219e-05 -6.52784e-06
51 1.76056e-05 4.49933e-05 -6.44231e-05
52 1.58587e-05 -0.000187293 -0.00017732
53 -9.86278e-05 0.000219462 -0.000191323
54 -0.000101304 -0.000114186 -1.53163e-05
55 0.000255258 -0.000156736 0.000334017
56 -0.000217308 -0.000336706 9.71592e-05
57 9.46037e-05 0.000153128 -0.000213579
58 -4.65294e-05 -9.58679e-06 -0.00024665
59 -0.000154089 0.000204961 -0.000283699
60 -0.000271896 -0.000284077 -3.40081e-05
116 0.000318738 0.00041983 -0.000125278
117 -0.000199976 -0.000104942 0.000172012
118 0.000216529 0.000120824 -9.48837e-05
119 -0.000125548 -1.47904e-05 0.000481773
120 0.000246521 3.76575e-05 -1.44067e-05
121 8.7944e-05 -0.000172252 0.00022208
122 -0.000170781 0.000223322 -0.000159279
123 0.000418739 -0.000227563 -9.64682e-05