42
Atoms. Timestep: 0
1 11 13.1029 22.1483
1 11 13.1029 19.8517
1 11 8.89708 19.8517
1 11 8.89708 22.1483
1 13.1029 14.4026 21
1 13.1029 7.5974 21
1 8.89708 7.5974 21
1 8.89708 14.4026 21
1 14.4026 11 22.1234
1 7.5974 11 22.1234
1 7.5974 11 19.8766
1 14.4026 11 19.8766
1 7 11 21
1 7.76393 9 20.3202
1 7.76393 9 21.6798
1 7.76393 13 20.3202
1 7.76393 13 21.6798
1 9 9.76393 19.7621
1 9 9.76393 22.2379
1 9 12.2361 19.7621
1 9 12.2361 22.2379
1 9.76393 7.76393 19.9224
1 9.76393 7.76393 22.0776
1 9.76393 14.2361 19.9224
1 9.76393 14.2361 22.0776
1 11 7 21
1 11 11 20.5856
1 11 11 21.4144
1 11 15 21
1 12.2361 7.76393 19.9224
1 12.2361 7.76393 22.0776
1 12.2361 14.2361 19.9224
1 12.2361 14.2361 22.0776
1 13 9.76393 19.7621
1 13 9.76393 22.2379
1 13 12.2361 19.7621
1 13 12.2361 22.2379
1 14.2361 9 20.3202
1 14.2361 9 21.6798
1 14.2361 13 20.3202
1 14.2361 13 21.6798
1 15 11 21
42
Atoms. Timestep: 10
1 10.9998 13.117 27.1623
1 11.0001 13.1174 26.8624
1 11.0001 8.88265 26.8602
1 10.9997 8.88359 27.1597
1 13.148 14.4583 27.0265
1 13.1478 7.54128 27.0283
1 8.84752 7.56019 27.0289
1 8.84733 14.4393 27.0269
1 14.4491 11.0038 27.1547
1 7.5504 11.0038 27.1564
1 7.55657 11.003 26.8914
1 14.4429 11.003 26.8896
1 6.94553 11.0025 27.0289
1 7.71538 8.96486 27.3453
1 7.71932 8.9674 26.7096
1 7.70947 13.0326 27.3452
1 7.71374 13.0301 26.7103
1 8.96311 9.74666 26.7694
1 8.95752 9.74498 27.2683
1 8.96319 12.2545 26.769
1 8.95941 12.2566 27.2691
1 9.73532 7.74915 26.9362
1 9.73172 7.7502 27.1007
1 9.73528 14.2508 26.9344
1 9.73174 14.2499 27.0989
1 10.9951 6.93752 27.0186
1 11.0005 10.9999 27.6181
1 11.0005 10.9999 27.4471
1 10.9951 15.0624 27.0164
1 12.2596 7.72134 26.9372
1 12.2613 7.71443 27.1007
1 12.2596 14.2786 26.9356
1 12.2612 14.2857 27.0992
1 13.035 9.74298 26.7694
1 13.04 9.73949 27.2678
1 13.0348 12.2582 26.7705
1 13.0381 12.2621 27.2704
1 14.283 8.9637 27.3433
1 14.2793 8.96638 26.7078
1 14.2889 13.0338 27.3434
1 14.2848 13.0312 26.7087
1 15.0542 11.0025 27.0266
42
Atoms. Timestep: 20
1 11.0287 13.0741 27.1903
1 11.0288 13.0754 26.9356
1 11.0308 8.92934 26.9205
1 11.0313 8.93242 27.1731
1 13.3763 14.748 27.1482
1 13.3641 7.24483 27.1531
1 8.58333 7.39576 27.1587
1 8.57094 14.5961 27.1528
1 14.601 11.041 27.3158
1 7.33182 11.0384 27.3189
1 7.35447 11.0369 27.0917
1 14.5807 11.0395 27.0915
1 6.63322 11.0287 27.1709
1 7.42624 8.78845 27.587
1 7.47134 8.82212 26.9572
1 7.38663 13.1877 27.5878
1 7.43423 13.1569 26.9722
1 8.73891 9.72526 26.9591
1 8.7181 9.71568 27.4076
1 8.76818 12.284 26.9676
1 8.75419 12.2934 27.4137
1 9.58428 7.88534 27.0488
1 9.57701 7.88563 27.1816
1 9.57754 14.1153 27.0459
1 9.57 14.1156 27.1786
1 10.9391 6.72013 27.0603
1 11.0462 10.9898 27.6552
1 11.0477 10.9905 27.4957
1 10.9393 15.2757 27.0547
1 12.3521 7.63089 27.0527
1 12.3539 7.61575 27.179
1 12.3588 14.3695 27.0513
1 12.3608 14.3853 27.1775
1 13.2437 9.64459 26.9669
1 13.2619 9.62597 27.4086
1 13.2113 12.3726 26.9812
1 13.2233 12.3915 27.4219
1 14.5165 8.75837 27.5787
1 14.4763 8.79402 26.9545
1 14.5529 13.2195 27.5814
1 14.51 13.1866 26.9704
1 15.3024 11.0302 27.1675
42
Atoms. Timestep: 30
1 11.0172 12.9504 27.2284
1 11.0185 12.9581 26.9733
1 11.027 9.0273 26.967
1 11.0264 9.03626 27.2218
1 13.4403 14.8357 27.2607
1 13.4108 7.13948 27.2683
1 8.50325 7.32251 27.2814
1 8.47077 14.6468 27.2726
1 14.602 11.0553 27.4937
1 7.24599 11.051 27.507
1 7.27293 11.0489 27.3056
1 14.5805 11.0533 27.2954
1 6.42717 11.0449 27.326
1 7.3239 8.73951 27.8032
1 7.37553 8.78463 27.1948
1 7.28119 13.1995 27.8025
1 7.33536 13.1579 27.2206
1 8.6366 9.76729 27.1447
1 8.6163 9.75336 27.5807
1 8.72193 12.2038 27.1553
1 8.71393 12.2166 27.5871
1 9.52872 8.0427 27.152
1 9.52148 8.0424 27.2679
1 9.51036 13.9404 27.1486
1 9.50292 13.9413 27.2647
1 10.8867 6.7247 27.0854
1 11.0682 10.9611 27.6828
1 11.0703 10.9613 27.515
1 10.8843 15.2513 27.0764
1 12.3477 7.78152 27.1549
1 12.3476 7.76651 27.2615
1 12.3635 14.2055 27.1523
1 12.3637 14.221 27.2592
1 13.3278 9.65039 27.1457
1 13.3444 9.62777 27.5808
1 13.2455 12.3441 27.1592
1 13.2517 12.3668 27.5911
1 14.571 8.66324 27.7896
1 14.5284 8.71125 27.1807
1 14.6119 13.2815 27.7917
1 14.5668 13.2372 27.207
1 15.4219 11.0453 27.3163
42
Atoms. Timestep: 40
1 10.9891 12.9036 27.2888
1 10.9923 12.9122 27.0192
1 10.9999 9.07754 27.0282
1 10.9968 9.08637 27.3002
1 13.3987 14.8595 27.336
1 13.3762 7.11949 27.3538
1 8.52017 7.24236 27.3682
1 8.49264 14.726 27.3501
1 14.6086 11.0578 27.6468
1 7.22033 11.0557 27.6781
1 7.24877 11.053 27.4918
1 14.5876 11.0553 27.4626
1 6.27209 11.0561 27.4588
1 7.31868 8.74218 27.973
1 7.37286 8.79265 27.3599
1 7.31171 13.1773 27.9667
1 7.36796 13.1292 27.3883
1 8.60357 9.78039 27.3055
1 8.58212 9.75938 27.7459
1 8.74096 12.164 27.3109
1 8.73523 12.1834 27.7494
1 9.53452 8.07558 27.2318
1 9.52715 8.07364 27.3435
1 9.518 13.9107 27.2187
1 9.51081 13.913 27.331
1 10.8637 6.73752 27.1087
1 11.059 10.95 27.7608
1 11.0617 10.9504 27.5825
1 10.8583 15.2382 27.0892
1 12.303 7.91034 27.2406
1 12.3018 7.89502 27.342
1 12.319 14.0849 27.226
1 12.318 14.1003 27.3281
1 13.3456 9.68865 27.2958
1 13.3611 9.66063 27.743
1 13.2272 12.2896 27.3018
1 13.23 12.3177 27.746
1 14.5533 8.65484 27.9509
1 14.5127 8.71049 27.3322
1 14.5711 13.278 27.9469
1 14.5293 13.2248 27.359
1 15.547 11.0518 27.4348
42
Atoms. Timestep: 50
1 10.9664 12.896 27.3619
1 10.9719 12.9025 27.0811
1 10.9703 9.08859 27.1023
1 10.9646 9.09345 27.3896
1 13.3354 14.8541 27.3879
1 13.3053 7.13065 27.4166
1 8.57362 7.19452 27.4262
1 8.54643 14.7707 27.3986
1 14.5912 11.0544 27.7723
1 7.23617 11.0485 27.8146
1 7.26447 11.045 27.6358
1 14.5713 11.0514 27.5959
1 6.18903 11.0614 27.5599
1 7.37209 8.77316 28.1022
1 7.42914 8.82613 27.4549
1 7.39405 13.1372 28.0931
1 7.45186 13.0833 27.4858
1 8.6122 9.77968 27.4306
1 8.5875 9.7524 27.8844
1 8.76274 12.1423 27.4338
1 8.75511 12.1681 27.8877
1 9.56388 8.06402 27.2947
1 9.55559 8.06079 27.4068
1 9.54475 13.9148 27.2708
1 9.53687 13.9181 27.3839
1 10.8599 6.73139 27.1325
1 11.0395 10.9474 27.8609
1 11.0425 10.9481 27.677
1 10.8573 15.2316 27.1011
1 12.2416 7.96393 27.314
1 12.2403 7.94773 27.4156
1 12.2739 14.0315 27.2853
1 12.2725 14.0473 27.3879
1 13.3109 9.71128 27.4186
1 13.3276 9.6779 27.8817
1 13.1955 12.2524 27.4208
1 13.1985 12.286 27.8803
1 14.4725 8.68788 28.0788
1 14.4323 8.74784 27.4234
1 14.4816 13.2493 28.0699
1 14.4424 13.1885 27.4504
1 15.6138 11.0587 27.5275
42
Atoms. Timestep: 60
1 10.9434 12.9005 27.4396
1 10.9506 12.9039 27.1553
1 10.9417 9.08029 27.183
1 10.9344 9.08055 27.4767
1 13.2683 14.8511 27.43
1 13.2405 7.13655 27.4678
1 8.60989 7.15625 27.4718
1 8.59102 14.8053 27.4356
1 14.5752 11.0382 27.8758
1 7.24684 11.0311 27.9238
1 7.27377 11.0269 27.7497
1 14.5569 11.0347 27.7047
1 6.14127 11.0519 27.6379
1 7.43238 8.79936 28.2093
1 7.49032 8.85311 27.5085
1 7.47165 13.1022 28.1976
1 7.52843 13.043 27.5424
1 8.62379 9.77068 27.5353
1 8.59586 9.73858 28.0014
1 8.76098 12.1297 27.5384
1 8.74977 12.1608 28.004
1 9.57845 8.03335 27.3529
1 9.56857 8.02938 27.465
1 9.55936 13.9301 27.3192
1 9.55003 13.934 27.4326
1 10.8516 6.70015 27.1577
1 11.0165 10.9465 27.9657
1 11.0196 10.9479 27.781
1 10.85 15.2451 27.1168
1 12.189 7.96712 27.381
1 12.1882 7.95008 27.4826
1 12.2311 14.0174 27.3406
1 12.23 14.0336 27.4434
1 13.2687 9.71609 27.5234
1 13.2872 9.67858 27.9995
1 13.1721 12.2266 27.5251
1 13.1767 12.2649 27.9944
1 14.3883 8.72629 28.1874
1 14.3488 8.78747 27.4783
1 14.3903 13.2098 28.1743
1 14.354 13.1436 27.5068
1 15.653 11.0483 27.6023
42
Atoms. Timestep: 70
1 10.9231 12.9084 27.5199
1 10.9316 12.9095 27.2359
1 10.9184 9.06528 27.2669
1 10.91 9.06184 27.5616
1 13.2105 14.8576 27.4694
1 13.1892 7.12853 27.5133
1 8.62998 7.11841 27.5121
1 8.62136 14.838 27.4697
1 14.5601 11.0226 27.9633
1 7.247 11.0152 28.0131
1 7.27163 11.0105 27.843
1 14.5441 11.0186 27.7965
1 6.10727 11.0388 27.703
1 7.48853 8.82 28.2999
1 7.54393 8.8737 27.54
1 7.53157 13.0785 28.2852
1 7.58473 13.0152 27.5757
1 8.63513 9.76359 27.6259
1 8.6062 9.72853 28.1014
1 8.7477 12.1242 27.6285
1 8.73379 12.1591 28.1014
1 9.58486 7.99554 27.4093
1 9.57326 7.99148 27.5201
1 9.5664 13.9507 27.3682
1 9.5553 13.9546 27.481
1 10.8422 6.65112 27.1865
1 10.9968 10.9479 28.0661
1 11 10.95 27.8823
1 10.841 15.2728 27.1393
1 12.1468 7.94805 27.4453
1 12.1469 7.93053 27.5456
1 12.1944 14.0208 27.3969
1 12.194 14.0372 27.4989
1 13.2289 9.71571 27.6143
1 13.2478 9.67571 28.1012
1 13.1552 12.2113 27.6159
1 13.1611 12.253 28.0921
1 14.3101 8.7589 28.282
1 14.273 8.81958 27.5137
1 14.309 13.1769 28.2649
1 14.2768 13.1073 27.5432
1 15.6731 11.0347 27.6676
42
Atoms. Timestep: 80
1 10.9039 12.9148 27.6056
1 10.9135 12.9143 27.3215
1 10.8976 9.0472 27.3539
1 10.8886 9.04124 27.6493
1 13.166 14.8662 27.5139
1 13.1479 7.11655 27.5611
1 8.63964 7.08406 27.5549
1 8.64007 14.8652 27.5088
1 14.5397 11.0103 28.0415
1 7.2477 11.0017 28.091
1 7.26951 10.9967 27.9245
1 14.5263 11.0061 27.8781
1 6.08679 11.0245 27.7655
1 7.54132 8.83725 28.3824
1 7.59115 8.89101 27.5634
1 7.58035 13.0605 28.3639
1 7.62818 12.9944 27.5984
1 8.64844 9.75899 27.7081
1 8.62081 9.72243 28.1935
1 8.73547 12.1209 27.7082
1 8.72055 12.158 28.1886
1 9.58767 7.95763 27.4686
1 9.57456 7.95404 27.578
1 9.57077 13.9705 27.4229
1 9.55796 13.9737 27.5347
1 10.8313 6.59853 27.2247
1 10.9796 10.9484 28.1651
1 10.9825 10.9508 27.9815
1 10.8328 15.3031 27.1747
1 12.1091 7.92342 27.5129
1 12.1101 7.9058 27.6119
1 12.1614 14.0279 27.4602
1 12.1619 14.0441 27.5612
1 13.1887 9.71509 27.6958
1 13.2069 9.67382 28.1946
1 13.1367 12.2011 27.6966
1 13.1431 12.2449 28.1808
1 14.2375 8.78634 28.3695
1 14.2044 8.84653 27.5416
1 14.2381 13.1517 28.3484
1 14.2104 13.0802 27.5705
1 15.6765 11.0229 27.7323
42
Atoms. Timestep: 90
1 10.8875 12.9202 27.6964
1 10.8978 12.9186 27.4108
1 10.8814 9.03068 27.4431
1 10.8721 9.02304 27.7402
1 13.1288 14.87 27.5662
1 13.1142 7.10893 27.6154
1 8.64678 7.05687 27.6046
1 8.65506 14.8866 27.5561
1 14.5116 11.0012 28.1143
1 7.25755 10.9923 28.1627
1 7.27676 10.9872 27.9989
1 14.5008 10.9968 27.9535
1 6.08255 11.0112 27.8296
1 7.59374 8.85424 28.4621
1 7.63646 8.90927 27.5867
1 7.62659 13.0464 28.4389
1 7.66818 12.9785 27.6181
1 8.66783 9.75826 27.7859
1 8.64257 9.72075 28.2821
1 8.732 12.1205 27.7822
1 8.71716 12.1585 28.2713
1 9.59252 7.92493 27.5337
1 9.57819 7.92213 27.642
1 9.57726 13.9887 27.4849
1 9.56293 13.9911 27.5961
1 10.8221 6.55175 27.2749
1 10.9669 10.9493 28.2646
1 10.9695 10.9517 28.0799
1 10.8261 15.3311 27.2236
1 12.0757 7.90124 27.586
1 12.0775 7.88377 27.684
1 12.1301 14.0344 27.5312
1 12.1315 14.0502 27.6315
1 13.1485 9.71619 27.7713
1 13.1657 9.67395 28.2832
1 13.1144 12.1943 27.7709
1 13.1209 12.2392 28.2649
1 14.1706 8.81215 28.4538
1 14.1422 8.87325 27.5687
1 14.1734 13.1291 28.4289
1 14.1501 13.0562 27.5952
1 15.665 11.012 27.7988
42
Atoms. Timestep: 100
1 10.8723 12.9264 27.7862
1 10.8831 12.9237 27.4994
1 10.8675 9.01417 27.5296
1 10.8581 9.00533 27.8281
1 13.0977 14.874 27.6219
1 13.087 7.10121 27.6727
1 8.65064 7.03404 27.6584
1 8.6652 14.9054 27.6077
1 14.477 10.994 28.1806
1 7.27499 10.9851 28.2281
1 7.29214 10.9801 28.0667
1 14.4682 10.9897 28.0221
1 6.09241 10.9982 27.8926
1 7.64317 8.86701 28.5378
1 7.67861 8.92541 27.6112
1 7.66861 13.0369 28.5103
1 7.70367 12.9671 27.6372
1 8.68929 9.75751 27.8588
1 8.66645 9.7188 28.3648
1 8.73331 12.123 27.8516
1 8.71901 12.1612 28.3487
1 9.59667 7.89556 27.6012
1 9.58136 7.89365 27.7083
1 9.58267 14.0069 27.5504
1 9.56699 14.0083 27.6607
1 10.8132 6.51081 27.3317
1 10.9566 10.9499 28.3605
1 10.9587 10.9522 28.175
1 10.8194 15.3584 27.2793
1 12.0462 7.87835 27.6597
1 12.0487 7.86114 27.7567
1 12.101 14.0437 27.6042
1 12.1033 14.0591 27.7038
1 13.1087 9.71511 27.8403
1 13.1251 9.67149 28.3642
1 13.0896 12.1921 27.8396
1 13.0964 12.2377 28.3427
1 14.1097 8.83178 28.5332
1 14.0854 8.89593 27.5956
1 14.1154 13.1113 28.5053
1 14.0961 13.0368 27.6187
1 15.6419 11.0013 27.8633
