42
Atoms. Timestep: 0
1 11 13.1029 22.1483
1 11 13.1029 19.8517
1 11 8.89708 19.8517
1 11 8.89708 22.1483
1 13.1029 14.4026 21
1 13.1029 7.5974 21
1 8.89708 7.5974 21
1 8.89708 14.4026 21
1 14.4026 11 22.1234
1 7.5974 11 22.1234
1 7.5974 11 19.8766
1 14.4026 11 19.8766
1 7 11 21
1 7.76393 9 20.3202
1 7.76393 9 21.6798
1 7.76393 13 20.3202
1 7.76393 13 21.6798
1 9 9.76393 19.7621
1 9 9.76393 22.2379
1 9 12.2361 19.7621
1 9 12.2361 22.2379
1 9.76393 7.76393 19.9224
1 9.76393 7.76393 22.0776
1 9.76393 14.2361 19.9224
1 9.76393 14.2361 22.0776
1 11 7 21
1 11 11 20.5856
1 11 11 21.4144
1 11 15 21
1 12.2361 7.76393 19.9224
1 12.2361 7.76393 22.0776
1 12.2361 14.2361 19.9224
1 12.2361 14.2361 22.0776
1 13 9.76393 19.7621
1 13 9.76393 22.2379
1 13 12.2361 19.7621
1 13 12.2361 22.2379
1 14.2361 9 20.3202
1 14.2361 9 21.6798
1 14.2361 13 20.3202
1 14.2361 13 21.6798
1 15 11 21
42
Atoms. Timestep: 10
1 11 13.103 22.1624
1 11 13.1029 19.8658
1 11 8.89708 19.867
1 11 8.89708 22.1635
1 13.1029 14.4026 21.0119
1 13.1029 7.5974 21.0136
1 8.89709 7.5974 21.0147
1 8.89709 14.4026 21.0128
1 14.4026 11 22.1362
1 7.59739 11 22.1381
1 7.5974 11 19.8913
1 14.4026 11 19.8894
1 7 11 21.0143
1 7.76393 8.99999 20.335
1 7.76394 9.00002 21.6946
1 7.76393 13 20.334
1 7.76394 13 21.6936
1 9 9.76392 19.7775
1 9 9.76394 22.2533
1 9.00002 12.2361 19.7768
1 8.99998 12.2361 22.2526
1 9.76393 7.76393 19.9373
1 9.76394 7.76392 22.0925
1 9.76393 14.2361 19.9354
1 9.76393 14.2361 22.0907
1 11 7 21.0143
1 11 11 20.6009
1 11 11 21.4297
1 11 15 21.0121
1 12.2361 7.76393 19.9367
1 12.2361 7.76393 22.0919
1 12.2361 14.2361 19.9349
1 12.2361 14.2361 22.0902
1 13 9.76393 19.7764
1 13.0001 9.76393 22.2522
1 12.9999 12.2361 19.7758
1 13.0001 12.2361 22.2516
1 14.2361 8.99999 20.3332
1 14.2361 9.00002 21.6928
1 14.2361 13 20.3323
1 14.2361 13 21.692
1 15 11 21.012
42
Atoms. Timestep: 20
1 11.0001 13.1031 22.1797
1 10.9999 13.1027 19.8831
1 10.9999 8.89702 19.8858
1 11.0001 8.89713 22.1824
1 13.1029 14.4026 21.027
1 13.1029 7.59741 21.0308
1 8.8971 7.5974 21.033
1 8.8971 14.4026 21.0287
1 14.4027 11.0001 22.1521
1 7.5974 11.0001 22.1563
1 7.59739 10.9999 19.9095
1 14.4025 10.9999 19.9052
1 6.99999 11 21.0322
1 7.76389 8.99994 20.3535
1 7.76401 9.00009 21.7132
1 7.7639 13 20.3512
1 7.76399 13 21.7108
1 8.99996 9.76384 19.7966
1 9.00005 9.76402 22.2725
1 9.00004 12.236 19.795
1 8.99996 12.2362 22.2708
1 9.76389 7.7639 19.9557
1 9.76398 7.76396 22.111
1 9.76392 14.236 19.9515
1 9.76395 14.2362 22.1068
1 11 7 21.0322
1 10.9999 11 20.6199
1 11.0001 11.0001 21.4487
1 11 15 21.0273
1 12.236 7.76392 19.9545
1 12.2362 7.76395 22.1097
1 12.236 14.2359 19.9506
1 12.2361 14.2363 22.1059
1 12.9997 9.76388 19.7941
1 13.0002 9.76399 22.27
1 12.9997 12.2359 19.7926
1 13.0003 12.2363 22.2684
1 14.236 8.99993 20.3496
1 14.2361 9.0001 21.7092
1 14.236 13 20.3476
1 14.2361 13 21.7072
1 15 11 21.0272
42
Atoms. Timestep: 30
1 11.0002 13.1034 22.1967
1 10.9998 13.1024 19.9001
1 10.9997 8.8969 19.9045
1 11.0003 8.89726 22.2011
1 13.1029 14.4026 21.0422
1 13.1029 7.59742 21.0482
1 8.89711 7.5974 21.0514
1 8.89711 14.4026 21.0447
1 14.4029 11.0002 22.1679
1 7.59745 11.0002 22.1745
1 7.59735 10.9998 19.9277
1 14.4023 10.9998 19.921
1 6.99999 11 21.0502
1 7.7638 8.99983 20.3721
1 7.76413 9.0002 21.7318
1 7.76385 12.9999 20.3684
1 7.76406 13 21.7281
1 8.99985 9.76368 19.8156
1 9.00018 9.76419 22.2914
1 9.00005 12.2358 19.8129
1 8.99996 12.2364 22.2887
1 9.7638 7.76379 19.9741
1 9.76408 7.76406 22.1293
1 9.76388 14.2358 19.9674
1 9.76399 14.2364 22.1227
1 11 7.00001 21.0502
1 10.9999 10.9999 20.6386
1 11.0002 11.0002 21.4673
1 11 15 21.0426
1 12.2359 7.76385 19.9723
1 12.2363 7.76402 22.1275
1 12.2359 14.2356 19.9662
1 12.2362 14.2366 22.1215
1 12.9994 9.76377 19.8116
1 13.0006 9.76411 22.2875
1 12.9993 12.2355 19.8091
1 13.0006 12.2367 22.2849
1 14.2359 8.99982 20.366
1 14.2362 9.00023 21.7257
1 14.2359 12.9999 20.3628
1 14.2362 13 21.7225
1 15 11 21.0425
42
Atoms. Timestep: 40
1 11.0003 13.1038 22.2134
1 10.9997 13.1021 19.9168
1 10.9995 8.89671 19.9228
1 11.0005 8.89744 22.2194
1 13.1028 14.4026 21.0575
1 13.1029 7.59743 21.0656
1 8.89711 7.5974 21.0698
1 8.89712 14.4026 21.0606
1 14.4032 11.0003 22.1836
1 7.59755 11.0003 22.1927
1 7.59726 10.9997 19.9458
1 14.402 10.9997 19.9367
1 6.99999 11 21.0682
1 7.76366 8.99969 20.3908
1 7.76429 9.00035 21.7504
1 7.76377 12.9999 20.3856
1 7.76416 13 21.7453
1 8.99967 9.76346 19.8343
1 9.00037 9.76441 22.3101
1 9.00001 12.2355 19.8305
1 9.00001 12.2366 22.3063
1 9.76366 7.7636 19.9923
1 9.76423 7.76424 22.1476
1 9.76383 14.2356 19.9831
1 9.76404 14.2366 22.1384
1 11 7.00001 21.0683
1 10.9997 10.9997 20.6569
1 11.0003 11.0003 21.4857
1 11 15 21.0579
1 12.2357 7.76374 19.99
1 12.2364 7.76414 22.1453
1 12.2358 14.2353 19.9818
1 12.2363 14.2369 22.137
1 12.9991 9.76362 19.8289
1 13.0009 9.76427 22.3048
1 12.9989 12.2351 19.8253
1 13.0011 12.2371 22.3012
1 14.2358 8.99968 20.3825
1 14.2362 9.00039 21.7422
1 14.2357 12.9998 20.3781
1 14.2364 13.0001 21.7377
1 15 11 21.0578
42
Atoms. Timestep: 50
1 11.0005 13.1042 22.2299
1 10.9995 13.1017 19.9333
1 10.9993 8.89649 19.941
1 11.0007 8.89766 22.2376
1 13.1028 14.4026 21.0728
1 13.1029 7.59743 21.083
1 8.89712 7.5974 21.0882
1 8.89713 14.4026 21.0765
1 14.4034 11.0005 22.1992
1 7.59768 11.0005 22.2107
1 7.59713 10.9995 19.9639
1 14.4017 10.9995 19.9524
1 7 11 21.0862
1 7.76349 8.99952 20.4093
1 7.76448 9.00052 21.769
1 7.76368 12.9998 20.4027
1 7.76427 13.0001 21.7624
1 8.99945 9.76319 19.8528
1 9.0006 9.76468 22.3286
1 8.99995 12.2353 19.8479
1 9.00009 12.2369 22.3238
1 9.76349 7.76336 20.0105
1 9.7644 7.76447 22.1657
1 9.76376 14.2354 19.9988
1 9.76411 14.2368 22.1541
1 11 7.00001 21.0863
1 10.9996 10.9996 20.6749
1 11.0004 11.0004 21.5037
1 11 15 21.0733
1 12.2356 7.76357 20.0077
1 12.2366 7.7643 22.1629
1 12.2357 14.2349 19.9972
1 12.2364 14.2373 22.1525
1 12.9987 9.76343 19.846
1 13.0013 9.76446 22.3219
1 12.9984 12.2347 19.8414
1 13.0015 12.2375 22.3173
1 14.2357 8.99951 20.399
1 14.2363 9.00057 21.7587
1 14.2355 12.9998 20.3933
1 14.2365 13.0002 21.753
1 15 11 21.0732
42
Atoms. Timestep: 60
1 11.0006 13.1047 22.2462
1 10.9993 13.1012 19.9496
1 10.999 8.89624 19.9589
1 11.001 8.8979 22.2555
1 13.1028 14.4026 21.0881
1 13.1029 7.59744 21.1004
1 8.89713 7.5974 21.1065
1 8.89713 14.4026 21.0923
1 14.4037 11.0007 22.2149
1 7.59784 11.0007 22.2287
1 7.59698 10.9993 19.9818
1 14.4014 10.9993 19.9681
1 7 11 21.1042
1 7.7633 8.99933 20.4279
1 7.76468 9.00071 21.7875
1 7.76357 12.9997 20.4198
1 7.7644 13.0002 21.7794
1 8.9992 9.7629 19.8711
1 9.00086 9.76497 22.347
1 8.99985 12.235 19.8652
1 9.0002 12.2372 22.3411
1 9.7633 7.76309 20.0285
1 9.76459 7.76473 22.1838
1 9.76368 14.2352 20.0144
1 9.7642 14.237 22.1697
1 11 7.00001 21.1042
1 10.9995 10.9995 20.6927
1 11.0006 11.0005 21.5215
1 11 15 21.0885
1 12.2354 7.76337 20.0253
1 12.2367 7.7645 22.1805
1 12.2355 14.2346 20.0127
1 12.2365 14.2376 22.168
1 12.9983 9.76323 19.863
1 13.0017 9.76467 22.3389
1 12.998 12.2342 19.8574
1 13.002 12.238 22.3332
1 14.2356 8.99934 20.4155
1 14.2364 9.00076 21.7751
1 14.2354 12.9997 20.4085
1 14.2367 13.0003 21.7682
1 15 11 21.0886
42
Atoms. Timestep: 70
1 11.0008 13.1051 22.2625
1 10.9991 13.1008 19.9659
1 10.9988 8.89599 19.9768
1 11.0012 8.89816 22.2734
1 13.1028 14.4026 21.1033
1 13.1029 7.59744 21.1178
1 8.89713 7.5974 21.1248
1 8.89714 14.4026 21.1081
1 14.4039 11.001 22.2305
1 7.59803 11.0009 22.2465
1 7.59681 10.9991 19.9997
1 14.4012 10.999 19.9837
1 7.00001 11 21.1222
1 7.7631 8.99914 20.4464
1 7.7649 9.0009 21.806
1 7.76346 12.9997 20.4367
1 7.76454 13.0003 21.7964
1 8.99894 9.7626 19.8894
1 9.00113 9.76527 22.3653
1 8.99973 12.2347 19.8824
1 9.00033 12.2375 22.3583
1 9.7631 7.76279 20.0466
1 9.7648 7.76501 22.2018
1 9.76358 14.2349 20.03
1 9.76429 14.2372 22.1853
1 11 7.00001 21.1222
1 10.9993 10.9994 20.7103
1 11.0007 11.0007 21.5391
1 11 15 21.1038
1 12.2353 7.76315 20.0428
1 12.2369 7.76472 22.1981
1 12.2354 14.2342 20.028
1 12.2367 14.238 22.1833
1 12.9979 9.763 19.88
1 13.0021 9.7649 22.3558
1 12.9975 12.2337 19.8733
1 13.0024 12.2385 22.3491
1 14.2355 8.99916 20.4319
1 14.2365 9.00095 21.7916
1 14.2352 12.9995 20.4237
1 14.2368 13.0004 21.7834
1 15 11 21.104
42
Atoms. Timestep: 80
1 11.001 13.1055 22.2788
1 10.9989 13.1004 19.9821
1 10.9985 8.89572 19.9946
1 11.0015 8.89842 22.2912
1 13.1028 14.4026 21.1185
1 13.1029 7.59745 21.1351
1 8.89714 7.5974 21.1431
1 8.89715 14.4026 21.124
1 14.4042 11.0012 22.2461
1 7.59823 11.0011 22.2644
1 7.59662 10.9988 20.0176
1 14.4009 10.9988 19.9993
1 7.00001 11 21.1401
1 7.7629 8.99895 20.4648
1 7.76511 9.0011 21.8245
1 7.76333 12.9996 20.4537
1 7.76468 13.0004 21.8133
1 8.99868 9.76229 19.9076
1 9.0014 9.76558 22.3835
1 8.99959 12.2343 19.8996
1 9.00048 12.2378 22.3755
1 9.76289 7.76249 20.0645
1 9.76501 7.76531 22.2198
1 9.76348 14.2347 20.0456
1 9.7644 14.2375 22.2009
1 11 7.00001 21.1401
1 10.9992 10.9993 20.7278
1 11.0008 11.0008 21.5566
1 11 15 21.1191
1 12.2351 7.76292 20.0603
1 12.2371 7.76496 22.2156
1 12.2353 14.2338 20.0434
1 12.2368 14.2384 22.1987
1 12.9975 9.76277 19.8968
1 13.0024 9.76513 22.3727
1 12.9971 12.2332 19.8891
1 13.0028 12.2389 22.365
1 14.2354 8.99897 20.4484
1 14.2366 9.00115 21.808
1 14.235 12.9994 20.4388
1 14.237 13.0005 21.7985
1 15 11 21.1195
42
Atoms. Timestep: 90
1 11.0012 13.1059 22.295
1 10.9987 13.1 19.9984
1 10.9983 8.89545 20.0124
1 11.0017 8.89869 22.3089
1 13.1028 14.4026 21.1337
1 13.1029 7.59746 21.1524
1 8.89714 7.5974 21.1613
1 8.89716 14.4026 21.1398
1 14.4044 11.0015 22.2617
1 7.59844 11.0014 22.2822
1 7.59642 10.9986 20.0354
1 14.4006 10.9986 20.0149
1 7.00002 11 21.158
1 7.76269 8.99876 20.4832
1 7.76533 9.0013 21.8429
1 7.7632 12.9994 20.4705
1 7.76484 13.0005 21.8302
1 8.99842 9.76198 19.9258
1 9.00167 9.7659 22.4016
1 8.99944 12.234 19.9167
1 9.00064 12.2381 22.3926
1 9.76268 7.76219 20.0825
1 9.76522 7.76561 22.2378
1 9.76336 14.2345 20.0612
1 9.76451 14.2377 22.2166
1 11 7.00002 21.158
1 10.9991 10.9991 20.7453
1 11.001 11.0009 21.5741
1 11 15 21.1343
1 12.2349 7.76268 20.0777
1 12.2372 7.7652 22.233
1 12.2351 14.2335 20.0587
1 12.2369 14.2387 22.214
1 12.9971 9.76253 19.9137
1 13.0028 9.76538 22.3896
1 12.9967 12.2328 19.9049
1 13.0032 12.2394 22.3808
1 14.2353 8.99879 20.4648
1 14.2367 9.00135 21.8244
1 14.2348 12.9993 20.454
1 14.2371 13.0006 21.8136
1 15 11 21.1349
42
Atoms. Timestep: 100
1 11.0014 13.1064 22.3112
1 10.9985 13.0995 20.0146
1 10.998 8.89518 20.0301
1 11.002 8.89896 22.3266
1 13.1028 14.4026 21.1488
1 13.1029 7.59746 21.1697
1 8.89715 7.5974 21.1795
1 8.89717 14.4026 21.1556
1 14.4047 11.0017 22.2773
1 7.59865 11.0017 22.2999
1 7.59622 10.9983 20.0531
1 14.4004 10.9983 20.0305
1 7.00003 11 21.1759
1 7.76249 8.99856 20.5016
1 7.76554 9.0015 21.8612
1 7.76307 12.9993 20.4874
1 7.765 13.0006 21.8471
1 8.99816 9.76166 19.9439
1 9.00194 9.76622 22.4197
1 8.99928 12.2337 19.9338
1 9.00082 12.2385 22.4097
1 9.76247 7.76188 20.1005
1 9.76543 7.76591 22.2558
1 9.76324 14.2342 20.0768
1 9.76464 14.238 22.2322
1 11 7.00002 21.1758
1 10.9989 10.999 20.7627
1 11.0011 11.001 21.5915
1 11 15 21.1496
1 12.2347 7.76242 20.0952
1 12.2374 7.76546 22.2505
1 12.235 14.2331 20.074
1 12.2371 14.2391 22.2293
1 12.9967 9.76229 19.9305
1 13.0032 9.76563 22.4064
1 12.9962 12.2323 19.9208
1 13.0036 12.2399 22.3966
1 14.2352 8.9986 20.4812
1 14.2368 9.00156 21.8408
1 14.2346 12.9991 20.4691
1 14.2373 13.0008 21.8287
1 15 11 21.1504
