42
Atoms. Timestep: 0
1 11 13.1029 22.1483
1 11 13.1029 19.8517
1 11 8.89708 19.8517
1 11 8.89708 22.1483
1 13.1029 14.4026 21
1 13.1029 7.5974 21
1 8.89708 7.5974 21
1 8.89708 14.4026 21
1 14.4026 11 22.1234
1 7.5974 11 22.1234
1 7.5974 11 19.8766
1 14.4026 11 19.8766
1 7 11 21
1 7.76393 9 20.3202
1 7.76393 9 21.6798
1 7.76393 13 20.3202
1 7.76393 13 21.6798
1 9 9.76393 19.7621
1 9 9.76393 22.2379
1 9 12.2361 19.7621
1 9 12.2361 22.2379
1 9.76393 7.76393 19.9224
1 9.76393 7.76393 22.0776
1 9.76393 14.2361 19.9224
1 9.76393 14.2361 22.0776
1 11 7 21
1 11 11 20.5856
1 11 11 21.4144
1 11 15 21
1 12.2361 7.76393 19.9224
1 12.2361 7.76393 22.0776
1 12.2361 14.2361 19.9224
1 12.2361 14.2361 22.0776
1 13 9.76393 19.7621
1 13 9.76393 22.2379
1 13 12.2361 19.7621
1 13 12.2361 22.2379
1 14.2361 9 20.3202
1 14.2361 9 21.6798
1 14.2361 13 20.3202
1 14.2361 13 21.6798
1 15 11 21
42
Atoms. Timestep: 10
1 11 13.103 22.5624
1 11 13.1029 20.2658
1 11 8.89708 20.267
1 11 8.89708 22.5635
1 13.1029 14.4026 21.4119
1 13.1029 7.5974 21.4136
1 8.89709 7.5974 21.4147
1 8.89709 14.4026 21.4128
1 14.4026 11 22.5362
1 7.59739 11 22.5381
1 7.5974 11 20.2913
1 14.4026 11 20.2894
1 7 11 21.4143
1 7.76393 9 20.735
1 7.76395 9.00002 22.0946
1 7.76393 13 20.734
1 7.76394 13 22.0936
1 9 9.76392 20.1775
1 9 9.76394 22.6533
1 9.00002 12.2361 20.1768
1 8.99998 12.2361 22.6526
1 9.76393 7.76393 20.3373
1 9.76394 7.76393 22.4925
1 9.76393 14.2361 20.3354
1 9.76393 14.2361 22.4907
1 11 7 21.4143
1 11 11 21.0009
1 11 11 21.8297
1 11 15 21.4121
1 12.2361 7.76393 20.3367
1 12.2361 7.76393 22.4919
1 12.2361 14.2361 20.3349
1 12.2361 14.2361 22.4902
1 13 9.76393 20.1764
1 13.0001 9.76393 22.6522
1 12.9999 12.2361 20.1758
1 13.0001 12.2361 22.6516
1 14.2361 8.99999 20.7332
1 14.2361 9.00002 22.0928
1 14.2361 13 20.7323
1 14.2361 13 22.092
1 15 11 21.412
42
Atoms. Timestep: 20
1 11.0001 13.1031 23.0797
1 10.9999 13.1027 20.7831
1 10.9999 8.89704 20.7858
1 11.0001 8.89714 23.0824
1 13.1029 14.4026 21.927
1 13.1029 7.59741 21.9308
1 8.8971 7.59741 21.933
1 8.8971 14.4026 21.9287
1 14.4027 11.0001 23.0521
1 7.59741 11.0001 23.0563
1 7.5974 10.9999 20.8095
1 14.4025 10.9999 20.8052
1 7 11 21.9322
1 7.7639 8.99995 21.2535
1 7.76402 9.0001 22.6132
1 7.76391 13 21.2512
1 7.76399 13 22.6108
1 8.99997 9.76385 20.6966
1 9.00006 9.76403 23.1724
1 9.00005 12.236 20.695
1 8.99997 12.2362 23.1708
1 9.7639 7.76391 20.8557
1 9.76399 7.76397 23.011
1 9.76392 14.236 20.8515
1 9.76396 14.2362 23.0068
1 11 7.00001 21.9322
1 11 11 21.5199
1 11.0001 11.0001 22.3487
1 11 15 21.9273
1 12.236 7.76393 20.8545
1 12.2362 7.76396 23.0097
1 12.236 14.2359 20.8506
1 12.2361 14.2363 23.0059
1 12.9997 9.76389 20.6941
1 13.0002 9.764 23.17
1 12.9997 12.2359 20.6926
1 13.0003 12.2363 23.1684
1 14.236 8.99994 21.2496
1 14.2361 9.00011 22.6092
1 14.236 13 21.2475
1 14.2361 13 22.6072
1 15 11 21.9272
42
Atoms. Timestep: 30
1 11.0002 13.1034 23.5967
1 10.9998 13.1024 21.3001
1 10.9998 8.89694 21.3045
1 11.0003 8.8973 23.601
1 13.1029 14.4026 22.4422
1 13.1029 7.59744 22.4482
1 8.89713 7.59743 22.4514
1 8.89713 14.4026 22.4447
1 14.4029 11.0002 23.5679
1 7.59748 11.0002 23.5745
1 7.59737 10.9998 21.3277
1 14.4023 10.9998 21.321
1 7.00001 11 22.4502
1 7.76384 8.99986 21.7722
1 7.76417 9.00024 23.1318
1 7.76387 12.9999 21.7684
1 7.76408 13 23.1281
1 8.99989 9.76372 21.2156
1 9.00022 9.76422 23.6914
1 9.00008 12.2358 21.2129
1 8.99999 12.2364 23.6887
1 9.76382 7.76382 21.3741
1 9.7641 7.76409 23.5293
1 9.7639 14.2358 21.3674
1 9.764 14.2364 23.5227
1 11 7.00003 22.4502
1 10.9999 10.9999 22.0386
1 11.0002 11.0002 22.8673
1 11 15.0001 22.4426
1 12.2359 7.76388 21.3723
1 12.2363 7.76405 23.5275
1 12.2359 14.2357 21.3662
1 12.2362 14.2366 23.5215
1 12.9994 9.76381 21.2116
1 13.0006 9.76414 23.6875
1 12.9993 12.2356 21.2091
1 13.0006 12.2367 23.685
1 14.236 8.99985 21.766
1 14.2362 9.00026 23.1257
1 14.2359 12.9999 21.7628
1 14.2363 13.0001 23.1225
1 15 11 22.4425
42
Atoms. Timestep: 40
1 11.0003 13.1038 24.1134
1 10.9997 13.1021 21.8168
1 10.9996 8.89682 21.8228
1 11.0005 8.89752 24.1194
1 13.1029 14.4027 22.9575
1 13.1029 7.59747 22.9656
1 8.89718 7.59747 22.9698
1 8.89715 14.4026 22.9606
1 14.4032 11.0004 24.0836
1 7.5976 11.0003 24.0927
1 7.59732 10.9997 21.8458
1 14.402 10.9997 21.8367
1 7.00003 11 22.9682
1 7.76374 8.99976 22.2908
1 7.76437 9.00042 23.6504
1 7.76382 12.9999 22.2856
1 7.7642 13.0001 23.6453
1 8.99975 9.76354 21.7343
1 9.00045 9.76448 24.2101
1 9.00008 12.2356 21.7305
1 9.00006 12.2366 24.2064
1 9.76372 7.76369 21.8923
1 9.76428 7.7643 24.0476
1 9.76386 14.2356 21.8831
1 9.76407 14.2366 24.0384
1 11 7.00006 22.9683
1 10.9998 10.9999 22.5569
1 11.0004 11.0004 23.3856
1 11 15.0001 22.9579
1 12.2358 7.76381 21.89
1 12.2365 7.7642 24.0452
1 12.2358 14.2354 21.8818
1 12.2363 14.2369 24.037
1 12.9991 9.7637 21.7289
1 13.0009 9.76433 24.2048
1 12.9989 12.2352 21.7253
1 13.0011 12.2371 24.2012
1 14.2359 8.99975 22.2825
1 14.2363 9.00046 23.6422
1 14.2358 12.9999 22.2781
1 14.2364 13.0001 23.6378
1 15.0001 11.0001 22.9578
42
Atoms. Timestep: 50
1 11.0005 13.1043 24.6299
1 10.9996 13.1017 22.3333
1 10.9994 8.89667 22.341
1 11.0008 8.8978 24.6375
1 13.1029 14.4027 23.4728
1 13.103 7.59753 23.483
1 8.89724 7.59753 23.4882
1 8.89719 14.4027 23.4765
1 14.4034 11.0006 24.5993
1 7.59777 11.0005 24.6107
1 7.59723 10.9996 22.3639
1 14.4018 10.9996 22.3524
1 7.00006 11.0001 23.4862
1 7.76363 8.99965 22.8094
1 7.76461 9.00065 24.169
1 7.76377 12.9999 22.8027
1 7.76435 13.0002 24.1624
1 8.99959 9.76334 22.2528
1 9.00074 9.76479 24.7286
1 9.00005 12.2353 22.2479
1 9.00017 12.2369 24.7238
1 9.7636 7.76352 22.4105
1 9.76449 7.76459 24.5657
1 9.76382 14.2355 22.3988
1 9.76416 14.2368 24.5541
1 11.0001 7.00011 23.4863
1 10.9997 10.9998 23.0749
1 11.0006 11.0006 23.9036
1 11 15.0002 23.4733
1 12.2357 7.76371 22.4077
1 12.2366 7.76441 24.5629
1 12.2357 14.235 22.3973
1 12.2364 14.2373 24.5525
1 12.9987 9.76358 22.246
1 13.0013 9.76457 24.7219
1 12.9985 12.2348 22.2414
1 13.0015 12.2376 24.7173
1 14.2358 8.99964 22.799
1 14.2364 9.00068 24.1587
1 14.2357 12.9999 22.7933
1 14.2366 13.0003 24.153
1 15.0001 11.0001 23.4732
42
Atoms. Timestep: 60
1 11.0007 13.1047 25.1463
1 10.9994 13.1013 22.8496
1 10.9992 8.8965 22.859
1 11.0011 8.8981 25.1555
1 13.103 14.4028 23.9881
1 13.1031 7.5976 24.0004
1 8.8973 7.5976 24.0065
1 8.89723 14.4027 23.9923
1 14.4037 11.0009 25.1149
1 7.59797 11.0008 25.1286
1 7.59713 10.9995 22.8818
1 14.4016 10.9995 22.868
1 7.0001 11.0002 24.0042
1 7.7635 8.99954 23.3279
1 7.76488 9.00089 24.6875
1 7.7637 12.9999 23.3197
1 7.76452 13.0003 24.6794
1 8.99941 9.76313 22.7712
1 9.00105 9.76514 25.247
1 9 12.2351 22.7652
1 9.00032 12.2372 25.2411
1 9.76348 7.76333 22.9286
1 9.76473 7.76491 25.0838
1 9.76378 14.2353 22.9144
1 9.76428 14.2371 25.0697
1 11.0001 7.00017 24.0042
1 10.9997 10.9997 23.5927
1 11.0008 11.0008 24.4214
1 11 15.0003 23.9885
1 12.2356 7.76359 22.9253
1 12.2368 7.76466 25.0805
1 12.2356 14.2347 22.9127
1 12.2366 14.2377 25.0679
1 12.9984 9.76345 22.763
1 13.0017 9.76484 25.239
1 12.9981 12.2344 22.7573
1 13.002 12.2381 25.2333
1 14.2358 8.99954 23.3155
1 14.2365 9.00093 24.6752
1 14.2355 12.9998 23.3085
1 14.2368 13.0004 24.6682
1 15.0002 11.0002 23.9886
42
Atoms. Timestep: 70
1 11.0009 13.1052 25.6626
1 10.9993 13.101 23.3659
1 10.999 8.89633 23.3768
1 11.0014 8.89842 25.6734
1 13.103 14.4029 24.5034
1 13.1031 7.59768 24.5178
1 8.89738 7.59767 24.5248
1 8.89729 14.4028 24.5082
1 14.404 11.0012 25.6306
1 7.5982 11.0011 25.6465
1 7.59702 10.9993 23.3997
1 14.4013 10.9993 23.3837
1 7.00014 11.0002 24.5222
1 7.76338 8.99943 23.8464
1 7.76516 9.00116 25.206
1 7.76364 12.9999 23.8367
1 7.76471 13.0004 25.1964
1 8.99922 9.76291 23.2894
1 9.00138 9.7655 25.7653
1 8.99993 12.2348 23.2824
1 9.00049 12.2376 25.7584
1 9.76335 7.76312 23.4466
1 9.76499 7.76526 25.6018
1 9.76373 14.2351 23.43
1 9.76441 14.2373 25.5854
1 11.0002 7.00025 24.5221
1 10.9996 10.9997 24.1104
1 11.0009 11.0009 24.939
1 11 15.0004 24.5038
1 12.2355 7.76345 23.4428
1 12.237 7.76495 25.5981
1 12.2355 14.2344 23.4281
1 12.2367 14.2381 25.5834
1 12.9981 9.76332 23.2799
1 13.0021 9.76513 25.7559
1 12.9976 12.234 23.2732
1 13.0024 12.2386 25.7492
1 14.2358 8.99945 23.8319
1 14.2367 9.00121 25.1917
1 14.2354 12.9998 23.8237
1 14.237 13.0006 25.1835
1 15.0002 11.0003 24.5041
42
Atoms. Timestep: 80
1 11.0011 13.1056 26.1789
1 10.9991 13.1006 23.8822
1 10.9988 8.89613 23.8946
1 11.0016 8.89872 26.1913
1 13.103 14.4029 25.0187
1 13.1032 7.59779 25.0352
1 8.89747 7.59775 25.0431
1 8.89738 14.4029 25.0241
1 14.4041 11.0015 26.1464
1 7.59848 11.0013 26.1645
1 7.59689 10.9992 23.9176
1 14.4011 10.9992 23.8994
1 7.00021 11.0003 25.0402
1 7.76325 8.99933 24.3648
1 7.76547 9.00144 25.7245
1 7.76359 12.9999 24.3537
1 7.76496 13.0006 25.7135
1 8.99901 9.76268 23.8076
1 9.00172 9.76587 26.2835
1 8.99984 12.2346 23.7996
1 9.00072 12.2379 26.2757
1 9.76322 7.76291 23.9646
1 9.76525 7.7656 26.12
1 9.76369 14.235 23.9457
1 9.76457 14.2376 26.1012
1 11.0003 7.00035 25.0401
1 10.9995 10.9996 24.6279
1 11.0011 11.0011 25.4564
1 11.0001 15.0004 25.0193
1 12.2354 7.76332 23.9604
1 12.2372 7.76527 26.1157
1 12.2354 14.2341 23.9436
1 12.2368 14.2384 26.099
1 12.9977 9.76317 23.7968
1 13.0024 9.76546 26.2729
1 12.9972 12.2336 23.7891
1 13.0027 12.239 26.2653
1 14.2357 8.99938 24.3484
1 14.2368 9.00154 25.7082
1 14.2352 12.9997 24.339
1 14.2371 13.0007 25.6988
1 15.0003 11.0004 25.0197
42
Atoms. Timestep: 90
1 11.0011 13.1057 26.6955
1 10.9989 13.1003 24.3986
1 10.9987 8.89588 24.4125
1 11.0018 8.89901 26.7093
1 13.1029 14.4028 25.5345
1 13.1032 7.59795 25.5529
1 8.89758 7.5978 25.5615
1 8.89756 14.4029 25.5403
1 14.404 11.0017 26.6628
1 7.59879 11.0016 26.6827
1 7.59676 10.999 24.4356
1 14.4008 10.999 24.4153
1 7.00034 11.0004 25.5583
1 7.76313 8.99923 24.8833
1 7.76575 9.00169 26.243
1 7.7636 12.9998 24.8709
1 7.76525 13.0007 26.2307
1 8.99877 9.76242 24.3259
1 9.00203 9.76616 26.8019
1 8.99971 12.2344 24.3168
1 9.00099 12.238 26.7931
1 9.76312 7.76267 24.4827
1 9.76547 7.7659 26.6383
1 9.76369 14.2348 24.4616
1 9.76473 14.2377 26.6175
1 11.0004 7.00048 25.5583
1 10.9993 10.9995 25.1451
1 11.0011 11.0011 25.9736
1 11.0002 15.0003 25.5351
1 12.2353 7.76318 24.4781
1 12.2373 7.7656 26.6337
1 12.2352 14.2337 24.4593
1 12.2368 14.2385 26.6151
1 12.9974 9.76302 24.3138
1 13.0024 9.76579 26.7901
1 12.9969 12.2332 24.3051
1 13.0027 12.2392 26.7816
1 14.2356 8.99936 24.8651
1 14.2367 9.00188 26.2249
1 14.2349 12.9996 24.8545
1 14.237 13.0007 26.2145
1 15.0001 11.0005 25.5356
42
Atoms. Timestep: 100
1 11.0036 13.1393 26.8047
1 11.0001 13.1331 24.9139
1 10.9999 8.86224 24.9298
1 11.0042 8.86571 26.8225
1 13.1339 14.443 26.0143
1 13.1323 7.55588 26.036
1 8.86705 7.56613 26.0548
1 8.86502 14.4328 26.0299
1 14.4167 11.0065 26.7779
1 7.58589 11.0064 26.8015
1 7.56063 10.9996 24.9266
1 14.4359 10.9995 24.9041
1 6.96211 11.0041 26.0502
1 7.72995 8.97749 25.3881
1 7.74797 8.98776 26.7524
1 7.72112 13.02 25.3683
1 7.74267 13.0115 26.7389
1 8.97957 9.74927 24.8455
1 8.99132 9.75606 26.9154
1 8.97535 12.2481 24.8334
1 8.98756 12.2495 26.9082
1 9.74153 7.72838 24.9713
1 9.75599 7.75486 26.7618
1 9.74131 14.2673 24.9476
1 9.75403 14.2486 26.7364
1 11.0007 6.9566 26.0402
1 11.0001 11.0003 25.663
1 11.0029 11.0022 26.4767
1 11.0005 15.0441 26.0127
1 12.2568 7.71779 24.9545
1 12.2473 7.74101 26.7449
1 12.2578 14.2773 24.9333
1 12.2479 14.263 26.7219
1 13.0158 9.74824 24.8321
1 13.0126 9.75131 26.9007
1 13.0205 12.2485 24.8201
1 13.0156 12.2551 26.8932
1 14.2671 8.97652 25.3679
1 14.2532 8.98624 26.7316
1 14.2758 13.0209 25.3501
1 14.2583 13.0132 26.72
1 15.0381 11.004 26.0241
