lammps cell input
42 atoms
120 bonds
80 angles
120 dihedrals

1 atom types
120 bond types
80 angle types
120 dihedral types
0 20 xlo xhi
0 20 ylo yhi
0 40 zlo zhi

Masses

1 2.14286

Bond Coeffs

1 0.000158709 2.18162 0.4545 0.000789088
 2 0.000158709 1.67835 0.4545 0.000467018
 3 0.000158709 2.2273 0.4545 0.000822475
 4 0.000158709 1.67835 0.4545 0.000467018
 5 0.000158709 2.18162 0.4545 0.000789088
 6 0.000158709 2.18162 0.4545 0.000789088
 7 0.000158709 1.67835 0.4545 0.000467018
 8 0.000158709 2.2273 0.4545 0.000822475
 9 0.000158709 1.67835 0.4545 0.000467018
 10 0.000158709 2.18162 0.4545 0.000789088
 11 0.000158709 2.18162 0.4545 0.000789088
 12 0.000158709 1.67835 0.4545 0.000467018
 13 0.000158709 2.2273 0.4545 0.000822475
 14 0.000158709 1.67835 0.4545 0.000467018
 15 0.000158709 2.18162 0.4545 0.000789088
 16 0.000158709 2.18162 0.4545 0.000789088
 17 0.000158709 1.67835 0.4545 0.000467018
 18 0.000158709 2.2273 0.4545 0.000822475
 19 0.000158709 1.67835 0.4545 0.000467018
 20 0.000158709 2.18162 0.4545 0.000789088
 21 0.000158709 2.18613 0.4545 0.000792354
 22 0.000158709 1.39298 0.4545 0.000321705
 23 0.000158709 1.39298 0.4545 0.000321705
 24 0.000158709 1.92704 0.4545 0.000615672
 25 0.000158709 1.92704 0.4545 0.000615672
 26 0.000158709 2.18613 0.4545 0.000792354
 27 0.000158709 1.39298 0.4545 0.000321705
 28 0.000158709 1.39298 0.4545 0.000321705
 29 0.000158709 1.92704 0.4545 0.000615672
 30 0.000158709 1.92704 0.4545 0.000615672
 31 0.000158709 1.92704 0.4545 0.000615672
 32 0.000158709 1.92704 0.4545 0.000615672
 33 0.000158709 1.39298 0.4545 0.000321705
 34 0.000158709 1.39298 0.4545 0.000321705
 35 0.000158709 2.18613 0.4545 0.000792354
 36 0.000158709 1.92704 0.4545 0.000615672
 37 0.000158709 1.92704 0.4545 0.000615672
 38 0.000158709 1.39298 0.4545 0.000321705
 39 0.000158709 1.39298 0.4545 0.000321705
 40 0.000158709 2.18613 0.4545 0.000792354
 41 0.000158709 1.87304 0.4545 0.000581647
 42 0.000158709 1.87304 0.4545 0.000581647
 43 0.000158709 2.05535 0.4545 0.000700389
 44 0.000158709 2.05535 0.4545 0.000700389
 45 0.000158709 1.27236 0.4545 0.000268404
 46 0.000158709 1.27236 0.4545 0.000268404
 47 0.000158709 2.05535 0.4545 0.000700389
 48 0.000158709 2.05535 0.4545 0.000700389
 49 0.000158709 1.87304 0.4545 0.000581647
 50 0.000158709 1.87304 0.4545 0.000581647
 51 0.000158709 1.27236 0.4545 0.000268404
 52 0.000158709 2.05535 0.4545 0.000700389
 53 0.000158709 2.05535 0.4545 0.000700389
 54 0.000158709 1.87304 0.4545 0.000581647
 55 0.000158709 1.87304 0.4545 0.000581647
 56 0.000158709 1.87304 0.4545 0.000581647
 57 0.000158709 1.87304 0.4545 0.000581647
 58 0.000158709 2.05535 0.4545 0.000700389
 59 0.000158709 2.05535 0.4545 0.000700389
 60 0.000158709 1.27236 0.4545 0.000268404
 61 0.000158709 2.24628 0.4545 0.000836555
 62 0.000158709 2.24628 0.4545 0.000836555
 63 0.000158709 2.24628 0.4545 0.000836555
 64 0.000158709 2.24628 0.4545 0.000836555
 65 0.000158709 1.35968 0.4545 0.000306508
 66 0.000158709 1.55656 0.4545 0.000401698
 67 0.000158709 2.38455 0.4545 0.000942712
 68 0.000158709 1.55656 0.4545 0.000401698
 69 0.000158709 2.38455 0.4545 0.000942712
 70 0.000158709 1.35968 0.4545 0.000306508
 71 0.000158709 1.55656 0.4545 0.000401698
 72 0.000158709 2.38455 0.4545 0.000942712
 73 0.000158709 1.55656 0.4545 0.000401698
 74 0.000158709 2.38455 0.4545 0.000942712
 75 0.000158709 2.47214 0.4545 0.00101324
 76 0.000158709 2.14693 0.4545 0.000764188
 77 0.000158709 2.49119 0.4545 0.00102891
 78 0.000158709 2.47214 0.4545 0.00101324
 79 0.000158709 2.14693 0.4545 0.000764188
 80 0.000158709 2.49119 0.4545 0.00102891
 81 0.000158709 2.14693 0.4545 0.000764188
 82 0.000158709 2.49119 0.4545 0.00102891
 83 0.000158709 2.14693 0.4545 0.000764188
 84 0.000158709 2.49119 0.4545 0.00102891
 85 0.000158709 1.80906 0.4545 0.000542588
 86 0.000158709 2.47214 0.4545 0.00101324
 87 0.000158709 1.80906 0.4545 0.000542588
 88 0.000158709 2.47214 0.4545 0.00101324
 89 0.000158709 1.80906 0.4545 0.000542588
 90 0.000158709 2.47214 0.4545 0.00101324
 91 0.000158709 1.80906 0.4545 0.000542588
 92 0.000158709 2.47214 0.4545 0.00101324
 93 0.000158709 1.80906 0.4545 0.000542588
 94 0.000158709 1.80906 0.4545 0.000542588
 95 0.000158709 2.49119 0.4545 0.00102891
 96 0.000158709 2.49119 0.4545 0.00102891
 97 0.000158709 2.49119 0.4545 0.00102891
 98 0.000158709 2.49119 0.4545 0.00102891
 99 0.000158709 1.80906 0.4545 0.000542588
 100 0.000158709 1.80906 0.4545 0.000542588
 101 0.000158709 2.14693 0.4545 0.000764188
 102 0.000158709 2.38455 0.4545 0.000942712
 103 0.000158709 2.14693 0.4545 0.000764188
 104 0.000158709 2.38455 0.4545 0.000942712
 105 0.000158709 2.14693 0.4545 0.000764188
 106 0.000158709 2.38455 0.4545 0.000942712
 107 0.000158709 2.14693 0.4545 0.000764188
 108 0.000158709 2.38455 0.4545 0.000942712
 109 0.000158709 2.47214 0.4545 0.00101324
 110 0.000158709 1.55656 0.4545 0.000401698
 111 0.000158709 2.47214 0.4545 0.00101324
 112 0.000158709 1.55656 0.4545 0.000401698
 113 0.000158709 1.55656 0.4545 0.000401698
 114 0.000158709 1.55656 0.4545 0.000401698
 115 0.000158709 1.35968 0.4545 0.000306508
 116 0.000158709 2.24628 0.4545 0.000836555
 117 0.000158709 2.24628 0.4545 0.000836555
 118 0.000158709 1.35968 0.4545 0.000306508
 119 0.000158709 2.24628 0.4545 0.000836555
 120 0.000158709 2.24628 0.4545 0.000836555
 
Angle Coeffs

1 0 0 0.00583333 127.396 6.11111e-05 88.0046 0.00583333 1.39391
2 0 0 0.00583333 127.396 6.11111e-05 88.0046 0.00583333 1.39391
3 0 0 0.00583333 127.396 6.11111e-05 88.0046 0.00583333 1.73948
4 0 0 0.00583333 127.396 6.11111e-05 88.0046 0.00583333 1.73948
5 0 0 0.00583333 127.396 6.11111e-05 88.0046 0.00583333 1.25531
6 0 0 0.00583333 127.396 6.11111e-05 88.0046 0.00583333 1.39391
7 0 0 0.00583333 127.396 6.11111e-05 88.0046 0.00583333 1.25531
8 0 0 0.00583333 127.396 6.11111e-05 88.0046 0.00583333 1.29228
9 0 0 0.00583333 127.396 6.11111e-05 88.0046 0.00583333 1.29228
10 0 0 0.00583333 127.396 6.11111e-05 88.0046 0.00583333 1.34215
11 0 0 0.00583333 127.396 6.11111e-05 88.0046 0.00583333 1.34215
12 0 0 0.00583333 127.396 6.11111e-05 88.0046 0.00583333 2.26514
13 0 0 0.00583333 127.396 6.11111e-05 88.0046 0.00583333 1.25531
14 0 0 0.00583333 127.396 6.11111e-05 88.0046 0.00583333 1.39391
15 0 0 0.00583333 127.396 6.11111e-05 88.0046 0.00583333 1.25531
16 0 0 0.00583333 127.396 6.11111e-05 88.0046 0.00583333 1.67377
17 0 0 0.00583333 127.396 6.11111e-05 88.0046 0.00583333 2.26514
18 0 0 0.00583333 127.396 6.11111e-05 88.0046 0.00583333 1.29228
19 0 0 0.00583333 127.396 6.11111e-05 88.0046 0.00583333 1.29228
20 0 0 0.00583333 127.396 6.11111e-05 88.0046 0.00583333 1.67377
21 0 0 0.00583333 127.396 6.11111e-05 88.0046 0.00583333 1.34215
22 0 0 0.00583333 127.396 6.11111e-05 88.0046 0.00583333 1.67377
23 0 0 0.00583333 127.396 6.11111e-05 88.0046 0.00583333 2.26514
24 0 0 0.00583333 127.396 6.11111e-05 88.0046 0.00583333 2.26514
25 0 0 0.00583333 127.396 6.11111e-05 88.0046 0.00583333 1.40336
26 0 0 0.00583333 127.396 6.11111e-05 88.0046 0.00583333 1.67377
27 0 0 0.00583333 127.396 6.11111e-05 88.0046 0.00583333 1.25531
28 0 0 0.00583333 127.396 6.11111e-05 88.0046 0.00583333 1.22585
29 0 0 0.00583333 127.396 6.11111e-05 88.0046 0.00583333 1.29228
30 0 0 0.00583333 127.396 6.11111e-05 88.0046 0.00583333 1.39391
31 0 0 0.00583333 127.396 6.11111e-05 88.0046 0.00583333 1.67377
32 0 0 0.00583333 127.396 6.11111e-05 88.0046 0.00583333 1.73948
33 0 0 0.00583333 127.396 6.11111e-05 88.0046 0.00583333 1.25531
34 0 0 0.00583333 127.396 6.11111e-05 88.0046 0.00583333 1.34215
35 0 0 0.00583333 127.396 6.11111e-05 88.0046 0.00583333 1.40336
36 0 0 0.00583333 127.396 6.11111e-05 88.0046 0.00583333 1.39391
37 0 0 0.00583333 127.396 6.11111e-05 88.0046 0.00583333 2.26514
38 0 0 0.00583333 127.396 6.11111e-05 88.0046 0.00583333 1.22585
39 0 0 0.00583333 127.396 6.11111e-05 88.0046 0.00583333 1.29228
40 0 0 0.00583333 127.396 6.11111e-05 88.0046 0.00583333 1.34215
41 0 0 0.00583333 127.396 6.11111e-05 88.0046 0.00583333 1.67377
42 0 0 0.00583333 127.396 6.11111e-05 88.0046 0.00583333 1.34215
43 0 0 0.00583333 127.396 6.11111e-05 88.0046 0.00583333 2.26514
44 0 0 0.00583333 127.396 6.11111e-05 88.0046 0.00583333 2.26514
45 0 0 0.00583333 127.396 6.11111e-05 88.0046 0.00583333 1.25531
46 0 0 0.00583333 127.396 6.11111e-05 88.0046 0.00583333 1.34215
47 0 0 0.00583333 127.396 6.11111e-05 88.0046 0.00583333 1.40336
48 0 0 0.00583333 127.396 6.11111e-05 88.0046 0.00583333 1.29228
49 0 0 0.00583333 127.396 6.11111e-05 88.0046 0.00583333 1.22585
50 0 0 0.00583333 127.396 6.11111e-05 88.0046 0.00583333 1.67377
51 0 0 0.00583333 127.396 6.11111e-05 88.0046 0.00583333 1.39391
52 0 0 0.00583333 127.396 6.11111e-05 88.0046 0.00583333 2.26514
53 0 0 0.00583333 127.396 6.11111e-05 88.0046 0.00583333 1.40336
54 0 0 0.00583333 127.396 6.11111e-05 88.0046 0.00583333 1.67377
55 0 0 0.00583333 127.396 6.11111e-05 88.0046 0.00583333 1.25531
56 0 0 0.00583333 127.396 6.11111e-05 88.0046 0.00583333 1.34215
57 0 0 0.00583333 127.396 6.11111e-05 88.0046 0.00583333 1.73948
58 0 0 0.00583333 127.396 6.11111e-05 88.0046 0.00583333 1.29228
59 0 0 0.00583333 127.396 6.11111e-05 88.0046 0.00583333 1.22585
60 0 0 0.00583333 127.396 6.11111e-05 88.0046 0.00583333 1.39391
61 0 0 0.00583333 127.396 6.11111e-05 88.0046 0.00583333 1.63667
62 0 0 0.00583333 127.396 6.11111e-05 88.0046 0.00583333 1.63667
63 0 0 0.00583333 127.396 6.11111e-05 88.0046 0.00583333 2.6735
64 0 0 0.00583333 127.396 6.11111e-05 88.0046 0.00583333 2.6735
65 0 0 0.00583333 127.396 6.11111e-05 88.0046 0.00583333 1.63274
66 0 0 0.00583333 127.396 6.11111e-05 88.0046 0.00583333 1.63667
67 0 0 0.00583333 127.396 6.11111e-05 88.0046 0.00583333 1.63274
68 0 0 0.00583333 127.396 6.11111e-05 88.0046 0.00583333 1.4555
69 0 0 0.00583333 127.396 6.11111e-05 88.0046 0.00583333 1.4555
70 0 0 0.00583333 127.396 6.11111e-05 88.0046 0.00583333 1.63667
71 0 0 0.00583333 127.396 6.11111e-05 88.0046 0.00583333 1.63667
72 0 0 0.00583333 127.396 6.11111e-05 88.0046 0.00583333 2.6735
73 0 0 0.00583333 127.396 6.11111e-05 88.0046 0.00583333 1.63274
74 0 0 0.00583333 127.396 6.11111e-05 88.0046 0.00583333 1.63667
75 0 0 0.00583333 127.396 6.11111e-05 88.0046 0.00583333 1.63274
76 0 0 0.00583333 127.396 6.11111e-05 88.0046 0.00583333 1.63667
77 0 0 0.00583333 127.396 6.11111e-05 88.0046 0.00583333 2.6735
78 0 0 0.00583333 127.396 6.11111e-05 88.0046 0.00583333 1.4555
79 0 0 0.00583333 127.396 6.11111e-05 88.0046 0.00583333 1.4555
80 0 0 0.00583333 127.396 6.11111e-05 88.0046 0.00583333 1.63667

Dihedral Coeffs

1 6.38889e-06 205
2 6.38889e-06 179
3 6.38889e-06 159
4 6.38889e-06 179
5 6.38889e-06 205
6 6.38889e-06 205
7 6.38889e-06 179
8 6.38889e-06 159
9 6.38889e-06 179
10 6.38889e-06 205
11 6.38889e-06 205
12 6.38889e-06 179
13 6.38889e-06 159
14 6.38889e-06 179
15 6.38889e-06 205
16 6.38889e-06 205
17 6.38889e-06 179
18 6.38889e-06 159
19 6.38889e-06 179
20 6.38889e-06 205
21 6.38889e-06 220
22 6.38889e-06 203
23 6.38889e-06 203
24 6.38889e-06 214
25 6.38889e-06 214
26 6.38889e-06 220
27 6.38889e-06 203
28 6.38889e-06 203
29 6.38889e-06 214
30 6.38889e-06 214
31 6.38889e-06 214
32 6.38889e-06 214
33 6.38889e-06 203
34 6.38889e-06 203
35 6.38889e-06 220
36 6.38889e-06 214
37 6.38889e-06 214
38 6.38889e-06 203
39 6.38889e-06 203
40 6.38889e-06 220
41 6.38889e-06 198
42 6.38889e-06 198
43 6.38889e-06 224
44 6.38889e-06 224
45 6.38889e-06 200
46 6.38889e-06 200
47 6.38889e-06 224
48 6.38889e-06 224
49 6.38889e-06 198
50 6.38889e-06 198
51 6.38889e-06 200
52 6.38889e-06 224
53 6.38889e-06 224
54 6.38889e-06 198
55 6.38889e-06 198
56 6.38889e-06 198
57 6.38889e-06 198
58 6.38889e-06 224
59 6.38889e-06 224
60 6.38889e-06 200
61 6.38889e-06 209
62 6.38889e-06 209
63 6.38889e-06 209
64 6.38889e-06 209
65 6.38889e-06 198
66 6.38889e-06 177
67 6.38889e-06 219
68 6.38889e-06 177
69 6.38889e-06 219
70 6.38889e-06 198
71 6.38889e-06 177
72 6.38889e-06 219
73 6.38889e-06 177
74 6.38889e-06 219
75 6.38889e-06 207
76 6.38889e-06 200
77 6.38889e-06 158
78 6.38889e-06 207
79 6.38889e-06 200
80 6.38889e-06 158
81 6.38889e-06 200
82 6.38889e-06 158
83 6.38889e-06 200
84 6.38889e-06 158
85 6.38889e-06 201
86 6.38889e-06 231
87 6.38889e-06 201
88 6.38889e-06 231
89 6.38889e-06 201
90 6.38889e-06 231
91 6.38889e-06 201
92 6.38889e-06 231
93 6.38889e-06 201
94 6.38889e-06 201
95 6.38889e-06 158
96 6.38889e-06 158
97 6.38889e-06 158
98 6.38889e-06 158
99 6.38889e-06 201
100 6.38889e-06 201
101 6.38889e-06 200
102 6.38889e-06 219
103 6.38889e-06 200
104 6.38889e-06 219
105 6.38889e-06 200
106 6.38889e-06 219
107 6.38889e-06 200
108 6.38889e-06 219
109 6.38889e-06 207
110 6.38889e-06 177
111 6.38889e-06 207
112 6.38889e-06 177
113 6.38889e-06 177
114 6.38889e-06 177
115 6.38889e-06 198
116 6.38889e-06 209
117 6.38889e-06 209
118 6.38889e-06 198
119 6.38889e-06 209
120 6.38889e-06 209

Atoms

1 1 1 11 13.1029 22.1483
2 1 1 11 13.1029 19.8517
3 1 1 11 8.89708 19.8517
4 1 1 11 8.89708 22.1483
5 1 1 13.1029 14.4026 21
6 1 1 13.1029 7.5974 21
7 1 1 8.89708 7.5974 21
8 1 1 8.89708 14.4026 21
9 1 1 14.4026 11 22.1234
10 1 1 7.5974 11 22.1234
11 1 1 7.5974 11 19.8766
12 1 1 14.4026 11 19.8766
13 1 1 7 11 21
14 1 1 7.76393 9 20.3202
15 1 1 7.76393 9 21.6798
16 1 1 7.76393 13 20.3202
17 1 1 7.76393 13 21.6798
18 1 1 9 9.76393 19.7621
19 1 1 9 9.76393 22.2379
20 1 1 9 12.2361 19.7621
21 1 1 9 12.2361 22.2379
22 1 1 9.76393 7.76393 19.9224
23 1 1 9.76393 7.76393 22.0776
24 1 1 9.76393 14.2361 19.9224
25 1 1 9.76393 14.2361 22.0776
26 1 1 11 7 21
27 1 1 11 11 20.5856
28 1 1 11 11 21.4144
29 1 1 11 15 21
30 1 1 12.2361 7.76393 19.9224
31 1 1 12.2361 7.76393 22.0776
32 1 1 12.2361 14.2361 19.9224
33 1 1 12.2361 14.2361 22.0776
34 1 1 13 9.76393 19.7621
35 1 1 13 9.76393 22.2379
36 1 1 13 12.2361 19.7621
37 1 1 13 12.2361 22.2379
38 1 1 14.2361 9 20.3202
39 1 1 14.2361 9 21.6798
40 1 1 14.2361 13 20.3202
41 1 1 14.2361 13 21.6798
42 1 1 15 11 21

Bonds

1 1 1 21
2 2 1 25
3 3 1 28
4 4 1 33
5 5 1 37
6 6 2 20
7 7 2 24
8 8 2 27
9 9 2 32
10 10 2 36
11 11 3 18
12 12 3 22
13 13 3 27
14 14 3 30
15 15 3 34
16 16 4 19
17 17 4 23
18 18 4 28
19 19 4 31
20 20 4 35
21 21 5 29
22 22 5 32
23 23 5 33
24 24 5 40
25 25 5 41
26 26 6 26
27 27 6 30
28 28 6 31
29 29 6 38
30 30 6 39
31 31 7 14
32 32 7 15
33 33 7 22
34 34 7 23
35 35 7 26
36 36 8 16
37 37 8 17
38 38 8 24
39 39 8 25
40 40 8 29
41 41 9 35
42 42 9 37
43 43 9 39
44 44 9 41
45 45 9 42
46 46 10 13
47 47 10 15
48 48 10 17
49 49 10 19
50 50 10 21
51 51 11 13
52 52 11 14
53 53 11 16
54 54 11 18
55 55 11 20
56 56 12 34
57 57 12 36
58 58 12 38
59 59 12 40
60 60 12 42
61 61 13 14
62 62 13 15
63 63 13 16
64 64 17 13
65 65 15 14
66 66 18 14
67 67 22 14
68 68 15 19
69 69 15 23
70 70 17 16
71 71 20 16
72 72 24 16
73 73 21 17
74 74 17 25
75 75 20 18
76 76 22 18
77 77 27 18
78 78 19 21
79 79 19 23
80 80 19 28
81 81 20 24
82 82 27 20
83 83 21 25
84 84 21 28
85 85 26 22
86 86 30 22
87 87 26 23
88 88 31 23
89 89 29 24
90 90 32 24
91 91 29 25
92 92 33 25
93 93 26 30
94 94 31 26
95 95 27 34
96 96 36 27
97 97 35 28
98 98 37 28
99 99 32 29
100 100 29 33
101 101 30 34
102 102 30 38
103 103 35 31
104 104 39 31
105 105 32 36
106 106 40 32
107 107 37 33
108 108 41 33
109 109 36 34
110 110 38 34
111 111 37 35
112 112 35 39
113 113 40 36
114 114 41 37
115 115 39 38
116 116 42 38
117 117 39 42
118 118 41 40
119 119 42 40
120 120 42 41

Angles

1 1 9 41 37
2 2 9 35 39
3 3 10 19 21
4 4 9 37 35
5 5 5 32 29
6 6 10 21 17
7 7 5 29 33
8 8 9 39 42
9 9 9 42 41
10 10 5 40 32
11 11 6 30 38
12 12 2 36 27
13 13 6 26 30
14 14 10 15 19
15 15 6 31 26
16 16 2 20 24
17 17 2 27 20
18 18 10 17 13
19 19 10 13 15
20 20 3 22 18
21 21 5 33 41
22 22 4 31 35
23 23 4 28 19
24 24 1 28 37
25 25 2 24 32
26 26 1 25 21
27 27 8 25 29
28 28 6 38 39
29 29 12 40 42
30 30 12 36 40
31 31 3 34 30
32 32 12 34 36
33 33 7 22 26
34 34 7 23 15
35 35 4 23 31
36 36 11 16 20
37 37 3 18 27
38 38 8 16 17
39 39 11 14 13
40 40 7 14 22
41 41 1 37 33
42 42 6 39 31
43 43 1 21 28
44 44 4 35 28
45 45 8 29 24
46 46 8 17 25
47 47 1 33 25
48 48 12 42 38
49 49 5 41 40
50 50 2 32 36
51 51 12 38 34
52 52 3 27 34
53 53 3 30 22
54 54 4 19 23
55 55 7 26 23
56 56 8 24 16
57 57 11 20 18
58 58 11 13 16
59 59 7 15 14
60 60 11 18 14
61 61 41 33 37
62 62 35 31 39
63 63 19 28 21
64 64 37 28 35
65 65 32 24 29
66 66 21 25 17
67 67 29 25 33
68 68 39 38 42
69 69 42 40 41
70 70 40 36 32
71 71 30 34 38
72 72 36 34 27
73 73 26 22 30
74 74 15 23 19
75 75 31 23 26
76 76 20 16 24
77 77 27 18 20
78 78 17 16 13
79 79 13 14 15
80 80 22 14 18

Dihedrals

1 1 28 1 21 25
2 2 21 1 25 33
3 3 37 1 28 21
4 4 25 1 33 37
5 5 33 1 37 28
6 6 24 2 20 27
7 7 32 2 24 20
8 8 20 2 27 36
9 9 36 2 32 24
10 10 27 2 36 32
11 11 27 3 18 22
12 12 18 3 22 30
13 13 34 3 27 18
14 14 22 3 30 34
15 15 30 3 34 27
16 16 23 4 19 28
17 17 31 4 23 19
18 18 19 4 28 35
19 19 35 4 31 23
20 20 28 4 35 31
21 21 33 5 29 32
22 22 29 5 32 40
23 23 41 5 33 29
24 24 32 5 40 41
25 25 40 5 41 33
26 26 30 6 26 31
27 27 38 6 30 26
28 28 26 6 31 39
29 29 39 6 38 30
30 30 31 6 39 38
31 31 22 7 14 15
32 32 14 7 15 23
33 33 26 7 22 14
34 34 15 7 23 26
35 35 23 7 26 22
36 36 17 8 16 24
37 37 25 8 17 16
38 38 16 8 24 29
39 39 29 8 25 17
40 40 24 8 29 25
41 41 39 9 35 37
42 42 35 9 37 41
43 43 42 9 39 35
44 44 37 9 41 42
45 45 41 9 42 39
46 46 15 10 13 17
47 47 19 10 15 13
48 48 13 10 17 21
49 49 21 10 19 15
50 50 17 10 21 19
51 51 16 11 13 14
52 52 13 11 14 18
53 53 20 11 16 13
54 54 14 11 18 20
55 55 18 11 20 16
56 56 36 12 34 38
57 57 40 12 36 34
58 58 34 12 38 42
59 59 42 12 40 36
60 60 38 12 42 40
61 61 15 13 14 11
62 62 10 13 15 14
63 63 11 13 16 17
64 64 10 17 13 16
65 65 7 15 14 13
66 66 11 18 14 22
67 67 18 22 14 7
68 68 10 15 19 23
69 69 19 15 23 7
70 70 13 17 16 8
71 71 24 20 16 11
72 72 8 24 16 20
73 73 10 21 17 25
74 74 8 17 25 21
75 75 11 20 18 27
76 76 3 22 18 14
77 77 20 27 18 3
78 78 10 19 21 28
79 79 4 19 23 15
80 80 21 19 28 4
81 81 2 20 24 16
82 82 2 27 20 18
83 83 17 21 25 1
84 84 1 21 28 19
85 85 30 26 22 7
86 86 3 30 22 26
87 87 7 26 23 31
88 88 26 31 23 4
89 89 8 29 24 32
90 90 29 32 24 2
91 91 33 29 25 8
92 92 1 33 25 29
93 93 6 26 30 22
94 94 6 31 26 23
95 95 3 27 34 36
96 96 2 36 27 34
97 97 4 35 28 37
98 98 35 37 28 1
99 99 5 32 29 24
100 100 5 29 33 25
101 101 38 30 34 3
102 102 6 30 38 34
103 103 39 35 31 4
104 104 6 39 31 35
105 105 2 32 36 40
106 106 5 40 32 36
107 107 1 37 33 41
108 108 37 41 33 5
109 109 27 36 34 12
110 110 12 38 34 30
111 111 9 37 35 28
112 112 9 35 39 31
113 113 32 40 36 12
114 114 9 41 37 33
115 115 42 39 38 6
116 116 12 42 38 39
117 117 9 39 42 38
118 118 5 41 40 42
119 119 41 42 40 12
120 120 9 42 41 40

