lammps cell input
6420 atoms
19200 bonds
12800 angles
19200 dihedrals

1 atom types
1920 bond types
1280 angle types
1920 dihedral types
0 30 xlo xhi
0 30 ylo yhi
0 80 zlo zhi

Masses

1 0.140187

Bond Coeffs

1 3.96772e-05 0.551661 0.4545 1.2614e-05
 2 3.96772e-05 0.500269 0.4545 1.03732e-05
 3 3.96772e-05 0.539657 0.4545 1.2071e-05
 4 3.96772e-05 0.500269 0.4545 1.03732e-05
 5 3.96772e-05 0.551661 0.4545 1.2614e-05
 6 3.96772e-05 0.551661 0.4545 1.2614e-05
 7 3.96772e-05 0.500269 0.4545 1.03732e-05
 8 3.96772e-05 0.539657 0.4545 1.2071e-05
 9 3.96772e-05 0.500269 0.4545 1.03732e-05
 10 3.96772e-05 0.551661 0.4545 1.2614e-05
 11 3.96772e-05 0.551661 0.4545 1.2614e-05
 12 3.96772e-05 0.500269 0.4545 1.03732e-05
 13 3.96772e-05 0.539657 0.4545 1.2071e-05
 14 3.96772e-05 0.500269 0.4545 1.03732e-05
 15 3.96772e-05 0.551661 0.4545 1.2614e-05
 16 3.96772e-05 0.551661 0.4545 1.2614e-05
 17 3.96772e-05 0.500269 0.4545 1.03732e-05
 18 3.96772e-05 0.539657 0.4545 1.2071e-05
 19 3.96772e-05 0.500269 0.4545 1.03732e-05
 20 3.96772e-05 0.551661 0.4545 1.2614e-05
 21 3.96772e-05 0.553133 0.4545 1.26813e-05
 22 3.96772e-05 0.33538 0.4545 4.66209e-06
 23 3.96772e-05 0.33538 0.4545 4.66209e-06
 24 3.96772e-05 0.481583 0.4545 9.61279e-06
 25 3.96772e-05 0.481583 0.4545 9.61279e-06
 26 3.96772e-05 0.553133 0.4545 1.26813e-05
 27 3.96772e-05 0.33538 0.4545 4.66209e-06
 28 3.96772e-05 0.33538 0.4545 4.66209e-06
 29 3.96772e-05 0.481583 0.4545 9.61279e-06
 30 3.96772e-05 0.481583 0.4545 9.61279e-06
 31 3.96772e-05 0.481583 0.4545 9.61279e-06
 32 3.96772e-05 0.481583 0.4545 9.61279e-06
 33 3.96772e-05 0.33538 0.4545 4.66209e-06
 34 3.96772e-05 0.33538 0.4545 4.66209e-06
 35 3.96772e-05 0.553133 0.4545 1.26813e-05
 36 3.96772e-05 0.481583 0.4545 9.61279e-06
 37 3.96772e-05 0.481583 0.4545 9.61279e-06
 38 3.96772e-05 0.33538 0.4545 4.66209e-06
 39 3.96772e-05 0.33538 0.4545 4.66209e-06
 40 3.96772e-05 0.553133 0.4545 1.26813e-05
 41 3.96772e-05 0.439852 0.4545 8.01898e-06
 42 3.96772e-05 0.439852 0.4545 8.01898e-06
 43 3.96772e-05 0.533181 0.4545 1.1783e-05
 44 3.96772e-05 0.533181 0.4545 1.1783e-05
 45 3.96772e-05 0.351073 0.4545 5.1086e-06
 46 3.96772e-05 0.351073 0.4545 5.1086e-06
 47 3.96772e-05 0.533181 0.4545 1.1783e-05
 48 3.96772e-05 0.533181 0.4545 1.1783e-05
 49 3.96772e-05 0.439852 0.4545 8.01898e-06
 50 3.96772e-05 0.439852 0.4545 8.01898e-06
 51 3.96772e-05 0.351073 0.4545 5.1086e-06
 52 3.96772e-05 0.533181 0.4545 1.1783e-05
 53 3.96772e-05 0.533181 0.4545 1.1783e-05
 54 3.96772e-05 0.439852 0.4545 8.01898e-06
 55 3.96772e-05 0.439852 0.4545 8.01898e-06
 56 3.96772e-05 0.439852 0.4545 8.01898e-06
 57 3.96772e-05 0.439852 0.4545 8.01898e-06
 58 3.96772e-05 0.533181 0.4545 1.1783e-05
 59 3.96772e-05 0.533181 0.4545 1.1783e-05
 60 3.96772e-05 0.351073 0.4545 5.1086e-06
 61 3.96772e-05 0.303504 0.4545 3.818e-06
 62 3.96772e-05 0.303504 0.4545 3.818e-06
 63 3.96772e-05 0.563752 0.4545 1.31729e-05
 64 3.96772e-05 0.563752 0.4545 1.31729e-05
 65 3.96772e-05 0.563752 0.4545 1.31729e-05
 66 3.96772e-05 0.563752 0.4545 1.31729e-05
 67 3.96772e-05 0.58238 0.4545 1.40579e-05
 68 3.96772e-05 0.507043 0.4545 1.06561e-05
 69 3.96772e-05 0.368475 0.4545 5.62759e-06
 70 3.96772e-05 0.498642 0.4545 1.03058e-05
 71 3.96772e-05 0.391639 0.4545 6.35738e-06
 72 3.96772e-05 0.591512 0.4545 1.45022e-05
 73 3.96772e-05 0.58238 0.4545 1.40579e-05
 74 3.96772e-05 0.507043 0.4545 1.06561e-05
 75 3.96772e-05 0.368475 0.4545 5.62759e-06
 76 3.96772e-05 0.498642 0.4545 1.03058e-05
 77 3.96772e-05 0.391639 0.4545 6.35738e-06
 78 3.96772e-05 0.591512 0.4545 1.45022e-05
 79 3.96772e-05 0.58238 0.4545 1.40579e-05
 80 3.96772e-05 0.507043 0.4545 1.06561e-05
 81 3.96772e-05 0.368475 0.4545 5.62759e-06
 82 3.96772e-05 0.498642 0.4545 1.03058e-05
 83 3.96772e-05 0.391639 0.4545 6.35738e-06
 84 3.96772e-05 0.591512 0.4545 1.45022e-05
 85 3.96772e-05 0.58238 0.4545 1.40579e-05
 86 3.96772e-05 0.507043 0.4545 1.06561e-05
 87 3.96772e-05 0.368475 0.4545 5.62759e-06
 88 3.96772e-05 0.498642 0.4545 1.03058e-05
 89 3.96772e-05 0.391639 0.4545 6.35738e-06
 90 3.96772e-05 0.591512 0.4545 1.45022e-05
 91 3.96772e-05 0.518541 0.4545 1.11448e-05
 92 3.96772e-05 0.483023 0.4545 9.67035e-06
 93 3.96772e-05 0.618415 0.4545 1.58513e-05
 94 3.96772e-05 0.596488 0.4545 1.47472e-05
 95 3.96772e-05 0.577926 0.4545 1.38437e-05
 96 3.96772e-05 0.540099 0.4545 1.20907e-05
 97 3.96772e-05 0.518541 0.4545 1.11448e-05
 98 3.96772e-05 0.483023 0.4545 9.67035e-06
 99 3.96772e-05 0.618415 0.4545 1.58513e-05
 100 3.96772e-05 0.596488 0.4545 1.47472e-05
 101 3.96772e-05 0.577926 0.4545 1.38437e-05
 102 3.96772e-05 0.540099 0.4545 1.20907e-05
 103 3.96772e-05 0.518541 0.4545 1.11448e-05
 104 3.96772e-05 0.483023 0.4545 9.67035e-06
 105 3.96772e-05 0.618415 0.4545 1.58513e-05
 106 3.96772e-05 0.596488 0.4545 1.47472e-05
 107 3.96772e-05 0.577926 0.4545 1.38437e-05
 108 3.96772e-05 0.540099 0.4545 1.20907e-05
 109 3.96772e-05 0.518541 0.4545 1.11448e-05
 110 3.96772e-05 0.483023 0.4545 9.67035e-06
 111 3.96772e-05 0.618415 0.4545 1.58513e-05
 112 3.96772e-05 0.596488 0.4545 1.47472e-05
 113 3.96772e-05 0.577926 0.4545 1.38437e-05
 114 3.96772e-05 0.540099 0.4545 1.20907e-05
 115 3.96772e-05 0.61775 0.4545 1.58173e-05
 116 3.96772e-05 0.379952 0.4545 5.98361e-06
 117 3.96772e-05 0.504407 0.4545 1.05456e-05
 118 3.96772e-05 0.489182 0.4545 9.91854e-06
 119 3.96772e-05 0.38827 0.4545 6.24848e-06
 120 3.96772e-05 0.623886 0.4545 1.61331e-05
 121 3.96772e-05 0.61775 0.4545 1.58173e-05
 122 3.96772e-05 0.379952 0.4545 5.98361e-06
 123 3.96772e-05 0.504407 0.4545 1.05456e-05
 124 3.96772e-05 0.489182 0.4545 9.91854e-06
 125 3.96772e-05 0.38827 0.4545 6.24848e-06
 126 3.96772e-05 0.623886 0.4545 1.61331e-05
 127 3.96772e-05 0.61775 0.4545 1.58173e-05
 128 3.96772e-05 0.379952 0.4545 5.98361e-06
 129 3.96772e-05 0.504407 0.4545 1.05456e-05
 130 3.96772e-05 0.489182 0.4545 9.91854e-06
 131 3.96772e-05 0.38827 0.4545 6.24848e-06
 132 3.96772e-05 0.623886 0.4545 1.61331e-05
 133 3.96772e-05 0.61775 0.4545 1.58173e-05
 134 3.96772e-05 0.379952 0.4545 5.98361e-06
 135 3.96772e-05 0.504407 0.4545 1.05456e-05
 136 3.96772e-05 0.489182 0.4545 9.91854e-06
 137 3.96772e-05 0.38827 0.4545 6.24848e-06
 138 3.96772e-05 0.623886 0.4545 1.61331e-05
 139 3.96772e-05 0.553133 0.4545 1.26813e-05
 140 3.96772e-05 0.441538 0.4545 8.08058e-06
 141 3.96772e-05 0.441538 0.4545 8.08058e-06
 142 3.96772e-05 0.441538 0.4545 8.08058e-06
 143 3.96772e-05 0.441538 0.4545 8.08058e-06
 144 3.96772e-05 0.553133 0.4545 1.26813e-05
 145 3.96772e-05 0.632231 0.4545 1.65675e-05
 146 3.96772e-05 0.632231 0.4545 1.65675e-05
 147 3.96772e-05 0.556323 0.4545 1.2828e-05
 148 3.96772e-05 0.556323 0.4545 1.2828e-05
 149 3.96772e-05 0.632231 0.4545 1.65675e-05
 150 3.96772e-05 0.632231 0.4545 1.65675e-05
 151 3.96772e-05 0.632231 0.4545 1.65675e-05
 152 3.96772e-05 0.632231 0.4545 1.65675e-05
 153 3.96772e-05 0.556323 0.4545 1.2828e-05
 154 3.96772e-05 0.556323 0.4545 1.2828e-05
 155 3.96772e-05 0.632231 0.4545 1.65675e-05
 156 3.96772e-05 0.632231 0.4545 1.65675e-05
 157 3.96772e-05 0.553133 0.4545 1.26813e-05
 158 3.96772e-05 0.441538 0.4545 8.08058e-06
 159 3.96772e-05 0.441538 0.4545 8.08058e-06
 160 3.96772e-05 0.441538 0.4545 8.08058e-06
 161 3.96772e-05 0.441538 0.4545 8.08058e-06
 162 3.96772e-05 0.553133 0.4545 1.26813e-05
 163 3.96772e-05 0.623886 0.4545 1.61331e-05
 164 3.96772e-05 0.38827 0.4545 6.24848e-06
 165 3.96772e-05 0.489182 0.4545 9.91854e-06
 166 3.96772e-05 0.504407 0.4545 1.05456e-05
 167 3.96772e-05 0.379952 0.4545 5.98361e-06
 168 3.96772e-05 0.61775 0.4545 1.58173e-05
 169 3.96772e-05 0.623886 0.4545 1.61331e-05
 170 3.96772e-05 0.38827 0.4545 6.24848e-06
 171 3.96772e-05 0.489182 0.4545 9.91854e-06
 172 3.96772e-05 0.504407 0.4545 1.05456e-05
 173 3.96772e-05 0.379952 0.4545 5.98361e-06
 174 3.96772e-05 0.61775 0.4545 1.58173e-05
 175 3.96772e-05 0.623886 0.4545 1.61331e-05
 176 3.96772e-05 0.38827 0.4545 6.24848e-06
 177 3.96772e-05 0.489182 0.4545 9.91854e-06
 178 3.96772e-05 0.504407 0.4545 1.05456e-05
 179 3.96772e-05 0.379952 0.4545 5.98361e-06
 180 3.96772e-05 0.61775 0.4545 1.58173e-05
 181 3.96772e-05 0.623886 0.4545 1.61331e-05
 182 3.96772e-05 0.38827 0.4545 6.24848e-06
 183 3.96772e-05 0.489182 0.4545 9.91854e-06
 184 3.96772e-05 0.504407 0.4545 1.05456e-05
 185 3.96772e-05 0.379952 0.4545 5.98361e-06
 186 3.96772e-05 0.61775 0.4545 1.58173e-05
 187 3.96772e-05 0.540099 0.4545 1.20907e-05
 188 3.96772e-05 0.577926 0.4545 1.38437e-05
 189 3.96772e-05 0.596488 0.4545 1.47472e-05
 190 3.96772e-05 0.618415 0.4545 1.58513e-05
 191 3.96772e-05 0.483023 0.4545 9.67035e-06
 192 3.96772e-05 0.518541 0.4545 1.11448e-05
 193 3.96772e-05 0.540099 0.4545 1.20907e-05
 194 3.96772e-05 0.577926 0.4545 1.38437e-05
 195 3.96772e-05 0.596488 0.4545 1.47472e-05
 196 3.96772e-05 0.618415 0.4545 1.58513e-05
 197 3.96772e-05 0.483023 0.4545 9.67035e-06
 198 3.96772e-05 0.518541 0.4545 1.11448e-05
 199 3.96772e-05 0.540099 0.4545 1.20907e-05
 200 3.96772e-05 0.577926 0.4545 1.38437e-05
 201 3.96772e-05 0.596488 0.4545 1.47472e-05
 202 3.96772e-05 0.618415 0.4545 1.58513e-05
 203 3.96772e-05 0.483023 0.4545 9.67035e-06
 204 3.96772e-05 0.518541 0.4545 1.11448e-05
 205 3.96772e-05 0.540099 0.4545 1.20907e-05
 206 3.96772e-05 0.577926 0.4545 1.38437e-05
 207 3.96772e-05 0.596488 0.4545 1.47472e-05
 208 3.96772e-05 0.618415 0.4545 1.58513e-05
 209 3.96772e-05 0.483023 0.4545 9.67035e-06
 210 3.96772e-05 0.518541 0.4545 1.11448e-05
 211 3.96772e-05 0.591512 0.4545 1.45022e-05
 212 3.96772e-05 0.391639 0.4545 6.35738e-06
 213 3.96772e-05 0.498642 0.4545 1.03058e-05
 214 3.96772e-05 0.368475 0.4545 5.62759e-06
 215 3.96772e-05 0.507043 0.4545 1.06561e-05
 216 3.96772e-05 0.58238 0.4545 1.40579e-05
 217 3.96772e-05 0.591512 0.4545 1.45022e-05
 218 3.96772e-05 0.391639 0.4545 6.35738e-06
 219 3.96772e-05 0.498642 0.4545 1.03058e-05
 220 3.96772e-05 0.368475 0.4545 5.62759e-06
 221 3.96772e-05 0.507043 0.4545 1.06561e-05
 222 3.96772e-05 0.58238 0.4545 1.40579e-05
 223 3.96772e-05 0.591512 0.4545 1.45022e-05
 224 3.96772e-05 0.391639 0.4545 6.35738e-06
 225 3.96772e-05 0.498642 0.4545 1.03058e-05
 226 3.96772e-05 0.368475 0.4545 5.62759e-06
 227 3.96772e-05 0.507043 0.4545 1.06561e-05
 228 3.96772e-05 0.58238 0.4545 1.40579e-05
 229 3.96772e-05 0.591512 0.4545 1.45022e-05
 230 3.96772e-05 0.391639 0.4545 6.35738e-06
 231 3.96772e-05 0.498642 0.4545 1.03058e-05
 232 3.96772e-05 0.368475 0.4545 5.62759e-06
 233 3.96772e-05 0.507043 0.4545 1.06561e-05
 234 3.96772e-05 0.58238 0.4545 1.40579e-05
 235 3.96772e-05 0.563752 0.4545 1.31729e-05
 236 3.96772e-05 0.563752 0.4545 1.31729e-05
 237 3.96772e-05 0.563752 0.4545 1.31729e-05
 238 3.96772e-05 0.563752 0.4545 1.31729e-05
 239 3.96772e-05 0.303504 0.4545 3.818e-06
 240 3.96772e-05 0.303504 0.4545 3.818e-06
 241 3.96772e-05 0.320477 0.4545 4.25698e-06
 242 3.96772e-05 0.544416 0.4545 1.22848e-05
 243 3.96772e-05 0.544416 0.4545 1.22848e-05
 244 3.96772e-05 0.578858 0.4545 1.38883e-05
 245 3.96772e-05 0.578858 0.4545 1.38883e-05
 246 3.96772e-05 0.340556 0.4545 4.80711e-06
 247 3.96772e-05 0.320477 0.4545 4.25698e-06
 248 3.96772e-05 0.544416 0.4545 1.22848e-05
 249 3.96772e-05 0.544416 0.4545 1.22848e-05
 250 3.96772e-05 0.578858 0.4545 1.38883e-05
 251 3.96772e-05 0.578858 0.4545 1.38883e-05
 252 3.96772e-05 0.340556 0.4545 4.80711e-06
 253 3.96772e-05 0.567433 0.4545 1.33455e-05
 254 3.96772e-05 0.539198 0.4545 1.20505e-05
 255 3.96772e-05 0.358988 0.4545 5.34153e-06
 256 3.96772e-05 0.337727 0.4545 4.72756e-06
 257 3.96772e-05 0.594364 0.4545 1.46424e-05
 258 3.96772e-05 0.574022 0.4545 1.36573e-05
 259 3.96772e-05 0.567433 0.4545 1.33455e-05
 260 3.96772e-05 0.539198 0.4545 1.20505e-05
 261 3.96772e-05 0.358988 0.4545 5.34153e-06
 262 3.96772e-05 0.337727 0.4545 4.72756e-06
 263 3.96772e-05 0.594364 0.4545 1.46424e-05
 264 3.96772e-05 0.574022 0.4545 1.36573e-05
 265 3.96772e-05 0.567433 0.4545 1.33455e-05
 266 3.96772e-05 0.539198 0.4545 1.20505e-05
 267 3.96772e-05 0.358988 0.4545 5.34153e-06
 268 3.96772e-05 0.337727 0.4545 4.72756e-06
 269 3.96772e-05 0.594364 0.4545 1.46424e-05
 270 3.96772e-05 0.574022 0.4545 1.36573e-05
 271 3.96772e-05 0.567433 0.4545 1.33455e-05
 272 3.96772e-05 0.539198 0.4545 1.20505e-05
 273 3.96772e-05 0.358988 0.4545 5.34153e-06
 274 3.96772e-05 0.337727 0.4545 4.72756e-06
 275 3.96772e-05 0.594364 0.4545 1.46424e-05
 276 3.96772e-05 0.574022 0.4545 1.36573e-05
 277 3.96772e-05 0.591335 0.4545 1.44935e-05
 278 3.96772e-05 0.357608 0.4545 5.30054e-06
 279 3.96772e-05 0.524481 0.4545 1.14016e-05
 280 3.96772e-05 0.515705 0.4545 1.10232e-05
 281 3.96772e-05 0.418118 0.4545 7.24608e-06
 282 3.96772e-05 0.494452 0.4545 1.01334e-05
 283 3.96772e-05 0.591335 0.4545 1.44935e-05
 284 3.96772e-05 0.357608 0.4545 5.30054e-06
 285 3.96772e-05 0.524481 0.4545 1.14016e-05
 286 3.96772e-05 0.515705 0.4545 1.10232e-05
 287 3.96772e-05 0.418118 0.4545 7.24608e-06
 288 3.96772e-05 0.494452 0.4545 1.01334e-05
 289 3.96772e-05 0.591335 0.4545 1.44935e-05
 290 3.96772e-05 0.357608 0.4545 5.30054e-06
 291 3.96772e-05 0.524481 0.4545 1.14016e-05
 292 3.96772e-05 0.515705 0.4545 1.10232e-05
 293 3.96772e-05 0.418118 0.4545 7.24608e-06
 294 3.96772e-05 0.494452 0.4545 1.01334e-05
 295 3.96772e-05 0.591335 0.4545 1.44935e-05
 296 3.96772e-05 0.357608 0.4545 5.30054e-06
 297 3.96772e-05 0.524481 0.4545 1.14016e-05
 298 3.96772e-05 0.515705 0.4545 1.10232e-05
 299 3.96772e-05 0.418118 0.4545 7.24608e-06
 300 3.96772e-05 0.494452 0.4545 1.01334e-05
 301 3.96772e-05 0.5906 0.4545 1.44575e-05
 302 3.96772e-05 0.5906 0.4545 1.44575e-05
 303 3.96772e-05 0.345284 0.4545 4.94149e-06
 304 3.96772e-05 0.345284 0.4545 4.94149e-06
 305 3.96772e-05 0.50351 0.4545 1.05081e-05
 306 3.96772e-05 0.50351 0.4545 1.05081e-05
 307 3.96772e-05 0.5906 0.4545 1.44575e-05
 308 3.96772e-05 0.5906 0.4545 1.44575e-05
 309 3.96772e-05 0.345284 0.4545 4.94149e-06
 310 3.96772e-05 0.345284 0.4545 4.94149e-06
 311 3.96772e-05 0.50351 0.4545 1.05081e-05
 312 3.96772e-05 0.50351 0.4545 1.05081e-05
 313 3.96772e-05 0.433831 0.4545 7.80094e-06
 314 3.96772e-05 0.459835 0.4545 8.76416e-06
 315 3.96772e-05 0.643552 0.4545 1.71662e-05
 316 3.96772e-05 0.54214 0.4545 1.21823e-05
 317 3.96772e-05 0.457346 0.4545 8.66956e-06
 318 3.96772e-05 0.488648 0.4545 9.89691e-06
 319 3.96772e-05 0.433831 0.4545 7.80094e-06
 320 3.96772e-05 0.459835 0.4545 8.76416e-06
 321 3.96772e-05 0.643552 0.4545 1.71662e-05
 322 3.96772e-05 0.54214 0.4545 1.21823e-05
 323 3.96772e-05 0.457346 0.4545 8.66956e-06
 324 3.96772e-05 0.488648 0.4545 9.89691e-06
 325 3.96772e-05 0.433831 0.4545 7.80094e-06
 326 3.96772e-05 0.459835 0.4545 8.76416e-06
 327 3.96772e-05 0.643552 0.4545 1.71662e-05
 328 3.96772e-05 0.54214 0.4545 1.21823e-05
 329 3.96772e-05 0.457346 0.4545 8.66956e-06
 330 3.96772e-05 0.488648 0.4545 9.89691e-06
 331 3.96772e-05 0.433831 0.4545 7.80094e-06
 332 3.96772e-05 0.459835 0.4545 8.76416e-06
 333 3.96772e-05 0.643552 0.4545 1.71662e-05
 334 3.96772e-05 0.54214 0.4545 1.21823e-05
 335 3.96772e-05 0.457346 0.4545 8.66956e-06
 336 3.96772e-05 0.488648 0.4545 9.89691e-06
 337 3.96772e-05 0.506923 0.4545 1.0651e-05
 338 3.96772e-05 0.490975 0.4545 9.99136e-06
 339 3.96772e-05 0.354803 0.4545 5.21773e-06
 340 3.96772e-05 0.352757 0.4545 5.1577e-06
 341 3.96772e-05 0.484944 0.4545 9.7474e-06
 342 3.96772e-05 0.620467 0.4545 1.59567e-05
 343 3.96772e-05 0.506923 0.4545 1.0651e-05
 344 3.96772e-05 0.490975 0.4545 9.99136e-06
 345 3.96772e-05 0.354803 0.4545 5.21773e-06
 346 3.96772e-05 0.352757 0.4545 5.1577e-06
 347 3.96772e-05 0.484944 0.4545 9.7474e-06
 348 3.96772e-05 0.620467 0.4545 1.59567e-05
 349 3.96772e-05 0.506923 0.4545 1.0651e-05
 350 3.96772e-05 0.490975 0.4545 9.99136e-06
 351 3.96772e-05 0.354803 0.4545 5.21773e-06
 352 3.96772e-05 0.352757 0.4545 5.1577e-06
 353 3.96772e-05 0.484944 0.4545 9.7474e-06
 354 3.96772e-05 0.620467 0.4545 1.59567e-05
 355 3.96772e-05 0.506923 0.4545 1.0651e-05
 356 3.96772e-05 0.490975 0.4545 9.99136e-06
 357 3.96772e-05 0.354803 0.4545 5.21773e-06
 358 3.96772e-05 0.352757 0.4545 5.1577e-06
 359 3.96772e-05 0.484944 0.4545 9.7474e-06
 360 3.96772e-05 0.620467 0.4545 1.59567e-05
 361 3.96772e-05 0.508046 0.4545 1.06982e-05
 362 3.96772e-05 0.400479 0.4545 6.6476e-06
 363 3.96772e-05 0.524395 0.4545 1.13979e-05
 364 3.96772e-05 0.591834 0.4545 1.4518e-05
 365 3.96772e-05 0.41814 0.4545 7.24686e-06
 366 3.96772e-05 0.611507 0.4545 1.54992e-05
 367 3.96772e-05 0.508046 0.4545 1.06982e-05
 368 3.96772e-05 0.400479 0.4545 6.6476e-06
 369 3.96772e-05 0.524395 0.4545 1.13979e-05
 370 3.96772e-05 0.591834 0.4545 1.4518e-05
 371 3.96772e-05 0.41814 0.4545 7.24686e-06
 372 3.96772e-05 0.611507 0.4545 1.54992e-05
 373 3.96772e-05 0.508046 0.4545 1.06982e-05
 374 3.96772e-05 0.400479 0.4545 6.6476e-06
 375 3.96772e-05 0.524395 0.4545 1.13979e-05
 376 3.96772e-05 0.591834 0.4545 1.4518e-05
 377 3.96772e-05 0.41814 0.4545 7.24686e-06
 378 3.96772e-05 0.611507 0.4545 1.54992e-05
 379 3.96772e-05 0.508046 0.4545 1.06982e-05
 380 3.96772e-05 0.400479 0.4545 6.6476e-06
 381 3.96772e-05 0.524395 0.4545 1.13979e-05
 382 3.96772e-05 0.591834 0.4545 1.4518e-05
 383 3.96772e-05 0.41814 0.4545 7.24686e-06
 384 3.96772e-05 0.611507 0.4545 1.54992e-05
 385 3.96772e-05 0.600789 0.4545 1.49606e-05
 386 3.96772e-05 0.371959 0.4545 5.73451e-06
 387 3.96772e-05 0.574716 0.4545 1.36903e-05
 388 3.96772e-05 0.505979 0.4545 1.06113e-05
 389 3.96772e-05 0.425673 0.4545 7.51033e-06
 390 3.96772e-05 0.609748 0.4545 1.54102e-05
 391 3.96772e-05 0.600789 0.4545 1.49606e-05
 392 3.96772e-05 0.371959 0.4545 5.73451e-06
 393 3.96772e-05 0.574716 0.4545 1.36903e-05
 394 3.96772e-05 0.505979 0.4545 1.06113e-05
 395 3.96772e-05 0.425673 0.4545 7.51033e-06
 396 3.96772e-05 0.609748 0.4545 1.54102e-05
 397 3.96772e-05 0.600789 0.4545 1.49606e-05
 398 3.96772e-05 0.371959 0.4545 5.73451e-06
 399 3.96772e-05 0.574716 0.4545 1.36903e-05
 400 3.96772e-05 0.505979 0.4545 1.06113e-05
 401 3.96772e-05 0.425673 0.4545 7.51033e-06
 402 3.96772e-05 0.609748 0.4545 1.54102e-05
 403 3.96772e-05 0.600789 0.4545 1.49606e-05
 404 3.96772e-05 0.371959 0.4545 5.73451e-06
 405 3.96772e-05 0.574716 0.4545 1.36903e-05
 406 3.96772e-05 0.505979 0.4545 1.06113e-05
 407 3.96772e-05 0.425673 0.4545 7.51033e-06
 408 3.96772e-05 0.609748 0.4545 1.54102e-05
 409 3.96772e-05 0.514812 0.4545 1.09851e-05
 410 3.96772e-05 0.514812 0.4545 1.09851e-05
 411 3.96772e-05 0.626829 0.4545 1.62856e-05
 412 3.96772e-05 0.626829 0.4545 1.62856e-05
 413 3.96772e-05 0.640695 0.4545 1.70141e-05
 414 3.96772e-05 0.640695 0.4545 1.70141e-05
 415 3.96772e-05 0.514812 0.4545 1.09851e-05
 416 3.96772e-05 0.514812 0.4545 1.09851e-05
 417 3.96772e-05 0.626829 0.4545 1.62856e-05
 418 3.96772e-05 0.626829 0.4545 1.62856e-05
 419 3.96772e-05 0.640695 0.4545 1.70141e-05
 420 3.96772e-05 0.640695 0.4545 1.70141e-05
 421 3.96772e-05 0.625434 0.4545 1.62132e-05
 422 3.96772e-05 0.494928 0.4545 1.01529e-05
 423 3.96772e-05 0.349276 0.4545 5.05643e-06
 424 3.96772e-05 0.367377 0.4545 5.59409e-06
 425 3.96772e-05 0.482523 0.4545 9.65035e-06
 426 3.96772e-05 0.572243 0.4545 1.35728e-05
 427 3.96772e-05 0.625434 0.4545 1.62132e-05
 428 3.96772e-05 0.494928 0.4545 1.01529e-05
 429 3.96772e-05 0.349276 0.4545 5.05643e-06
 430 3.96772e-05 0.367377 0.4545 5.59409e-06
 431 3.96772e-05 0.482523 0.4545 9.65035e-06
 432 3.96772e-05 0.572243 0.4545 1.35728e-05
 433 3.96772e-05 0.625434 0.4545 1.62132e-05
 434 3.96772e-05 0.494928 0.4545 1.01529e-05
 435 3.96772e-05 0.349276 0.4545 5.05643e-06
 436 3.96772e-05 0.367377 0.4545 5.59409e-06
 437 3.96772e-05 0.482523 0.4545 9.65035e-06
 438 3.96772e-05 0.572243 0.4545 1.35728e-05
 439 3.96772e-05 0.625434 0.4545 1.62132e-05
 440 3.96772e-05 0.494928 0.4545 1.01529e-05
 441 3.96772e-05 0.349276 0.4545 5.05643e-06
 442 3.96772e-05 0.367377 0.4545 5.59409e-06
 443 3.96772e-05 0.482523 0.4545 9.65035e-06
 444 3.96772e-05 0.572243 0.4545 1.35728e-05
 445 3.96772e-05 0.630884 0.4545 1.6497e-05
 446 3.96772e-05 0.440811 0.4545 8.05398e-06
 447 3.96772e-05 0.56236 0.4545 1.3108e-05
 448 3.96772e-05 0.528025 0.4545 1.15562e-05
 449 3.96772e-05 0.428491 0.4545 7.61009e-06
 450 3.96772e-05 0.569632 0.4545 1.34491e-05
 451 3.96772e-05 0.630884 0.4545 1.6497e-05
 452 3.96772e-05 0.440811 0.4545 8.05398e-06
 453 3.96772e-05 0.56236 0.4545 1.3108e-05
 454 3.96772e-05 0.528025 0.4545 1.15562e-05
 455 3.96772e-05 0.428491 0.4545 7.61009e-06
 456 3.96772e-05 0.569632 0.4545 1.34491e-05
 457 3.96772e-05 0.630884 0.4545 1.6497e-05
 458 3.96772e-05 0.440811 0.4545 8.05398e-06
 459 3.96772e-05 0.56236 0.4545 1.3108e-05
 460 3.96772e-05 0.528025 0.4545 1.15562e-05
 461 3.96772e-05 0.428491 0.4545 7.61009e-06
 462 3.96772e-05 0.569632 0.4545 1.34491e-05
 463 3.96772e-05 0.630884 0.4545 1.6497e-05
 464 3.96772e-05 0.440811 0.4545 8.05398e-06
 465 3.96772e-05 0.56236 0.4545 1.3108e-05
 466 3.96772e-05 0.528025 0.4545 1.15562e-05
 467 3.96772e-05 0.428491 0.4545 7.61009e-06
 468 3.96772e-05 0.569632 0.4545 1.34491e-05
 469 3.96772e-05 0.553133 0.4545 1.26813e-05
 470 3.96772e-05 0.469757 0.4545 9.14646e-06
 471 3.96772e-05 0.469757 0.4545 9.14646e-06
 472 3.96772e-05 0.359819 0.4545 5.3663e-06
 473 3.96772e-05 0.359819 0.4545 5.3663e-06
 474 3.96772e-05 0.553133 0.4545 1.26813e-05
 475 3.96772e-05 0.553133 0.4545 1.26813e-05
 476 3.96772e-05 0.469757 0.4545 9.14646e-06
 477 3.96772e-05 0.469757 0.4545 9.14646e-06
 478 3.96772e-05 0.359819 0.4545 5.3663e-06
 479 3.96772e-05 0.359819 0.4545 5.3663e-06
 480 3.96772e-05 0.553133 0.4545 1.26813e-05
 481 3.96772e-05 0.550387 0.4545 1.25558e-05
 482 3.96772e-05 0.502702 0.4545 1.04743e-05
 483 3.96772e-05 0.566826 0.4545 1.3317e-05
 484 3.96772e-05 0.599135 0.4545 1.48784e-05
 485 3.96772e-05 0.5531 0.4545 1.26798e-05
 486 3.96772e-05 0.64075 0.4545 1.7017e-05
 487 3.96772e-05 0.550387 0.4545 1.25558e-05
 488 3.96772e-05 0.502702 0.4545 1.04743e-05
 489 3.96772e-05 0.566826 0.4545 1.3317e-05
 490 3.96772e-05 0.599135 0.4545 1.48784e-05
 491 3.96772e-05 0.5531 0.4545 1.26798e-05
 492 3.96772e-05 0.64075 0.4545 1.7017e-05
 493 3.96772e-05 0.662364 0.4545 1.81844e-05
 494 3.96772e-05 0.644555 0.4545 1.72198e-05
 495 3.96772e-05 0.654408 0.4545 1.77502e-05
 496 3.96772e-05 0.582836 0.4545 1.40799e-05
 497 3.96772e-05 0.576441 0.4545 1.37726e-05
 498 3.96772e-05 0.653511 0.4545 1.77016e-05
 499 3.96772e-05 0.662364 0.4545 1.81844e-05
 500 3.96772e-05 0.644555 0.4545 1.72198e-05
 501 3.96772e-05 0.654408 0.4545 1.77502e-05
 502 3.96772e-05 0.582836 0.4545 1.40799e-05
 503 3.96772e-05 0.576441 0.4545 1.37726e-05
 504 3.96772e-05 0.653511 0.4545 1.77016e-05
 505 3.96772e-05 0.662364 0.4545 1.81844e-05
 506 3.96772e-05 0.644555 0.4545 1.72198e-05
 507 3.96772e-05 0.654408 0.4545 1.77502e-05
 508 3.96772e-05 0.582836 0.4545 1.40799e-05
 509 3.96772e-05 0.653511 0.4545 1.77016e-05
 510 3.96772e-05 0.576441 0.4545 1.37726e-05
 511 3.96772e-05 0.662364 0.4545 1.81844e-05
 512 3.96772e-05 0.644555 0.4545 1.72198e-05
 513 3.96772e-05 0.654408 0.4545 1.77502e-05
 514 3.96772e-05 0.582836 0.4545 1.40799e-05
 515 3.96772e-05 0.653511 0.4545 1.77016e-05
 516 3.96772e-05 0.576441 0.4545 1.37726e-05
 517 3.96772e-05 0.550387 0.4545 1.25558e-05
 518 3.96772e-05 0.502702 0.4545 1.04743e-05
 519 3.96772e-05 0.566826 0.4545 1.3317e-05
 520 3.96772e-05 0.599135 0.4545 1.48784e-05
 521 3.96772e-05 0.64075 0.4545 1.7017e-05
 522 3.96772e-05 0.5531 0.4545 1.26798e-05
 523 3.96772e-05 0.550387 0.4545 1.25558e-05
 524 3.96772e-05 0.502702 0.4545 1.04743e-05
 525 3.96772e-05 0.566826 0.4545 1.3317e-05
 526 3.96772e-05 0.599135 0.4545 1.48784e-05
 527 3.96772e-05 0.64075 0.4545 1.7017e-05
 528 3.96772e-05 0.5531 0.4545 1.26798e-05
 529 3.96772e-05 0.572399 0.4545 1.35801e-05
 530 3.96772e-05 0.473258 0.4545 9.28331e-06
 531 3.96772e-05 0.373837 0.4545 5.79257e-06
 532 3.96772e-05 0.454838 0.4545 8.5747e-06
 533 3.96772e-05 0.464311 0.4545 8.93563e-06
 534 3.96772e-05 0.651902 0.4545 1.76145e-05
 535 3.96772e-05 0.572399 0.4545 1.35801e-05
 536 3.96772e-05 0.473258 0.4545 9.28331e-06
 537 3.96772e-05 0.373837 0.4545 5.79257e-06
 538 3.96772e-05 0.454838 0.4545 8.5747e-06
 539 3.96772e-05 0.464311 0.4545 8.93563e-06
 540 3.96772e-05 0.651902 0.4545 1.76145e-05
 541 3.96772e-05 0.572412 0.4545 1.35808e-05
 542 3.96772e-05 0.406888 0.4545 6.8621e-06
 543 3.96772e-05 0.535287 0.4545 1.18763e-05
 544 3.96772e-05 0.472662 0.4545 9.25994e-06
 545 3.96772e-05 0.447586 0.4545 8.30346e-06
 546 3.96772e-05 0.643525 0.4545 1.71647e-05
 547 3.96772e-05 0.572412 0.4545 1.35808e-05
 548 3.96772e-05 0.406888 0.4545 6.8621e-06
 549 3.96772e-05 0.535287 0.4545 1.18763e-05
 550 3.96772e-05 0.472662 0.4545 9.25994e-06
 551 3.96772e-05 0.447586 0.4545 8.30346e-06
 552 3.96772e-05 0.643525 0.4545 1.71647e-05
 553 3.96772e-05 0.572412 0.4545 1.35808e-05
 554 3.96772e-05 0.406888 0.4545 6.8621e-06
 555 3.96772e-05 0.535287 0.4545 1.18763e-05
 556 3.96772e-05 0.447586 0.4545 8.30346e-06
 557 3.96772e-05 0.472662 0.4545 9.25994e-06
 558 3.96772e-05 0.643525 0.4545 1.71647e-05
 559 3.96772e-05 0.572412 0.4545 1.35808e-05
 560 3.96772e-05 0.406888 0.4545 6.8621e-06
 561 3.96772e-05 0.535287 0.4545 1.18763e-05
 562 3.96772e-05 0.447586 0.4545 8.30346e-06
 563 3.96772e-05 0.472662 0.4545 9.25994e-06
 564 3.96772e-05 0.643525 0.4545 1.71647e-05
 565 3.96772e-05 0.572399 0.4545 1.35801e-05
 566 3.96772e-05 0.473258 0.4545 9.28331e-06
 567 3.96772e-05 0.373837 0.4545 5.79257e-06
 568 3.96772e-05 0.464311 0.4545 8.93563e-06
 569 3.96772e-05 0.454838 0.4545 8.5747e-06
 570 3.96772e-05 0.651902 0.4545 1.76145e-05
 571 3.96772e-05 0.572399 0.4545 1.35801e-05
 572 3.96772e-05 0.473258 0.4545 9.28331e-06
 573 3.96772e-05 0.373837 0.4545 5.79257e-06
 574 3.96772e-05 0.464311 0.4545 8.93563e-06
 575 3.96772e-05 0.454838 0.4545 8.5747e-06
 576 3.96772e-05 0.651902 0.4545 1.76145e-05
 577 3.96772e-05 0.627239 0.4545 1.63069e-05
 578 3.96772e-05 0.480997 0.4545 9.58939e-06
 579 3.96772e-05 0.450483 0.4545 8.41131e-06
 580 3.96772e-05 0.450483 0.4545 8.41131e-06
 581 3.96772e-05 0.480997 0.4545 9.58939e-06
 582 3.96772e-05 0.627239 0.4545 1.63069e-05
 583 3.96772e-05 0.627239 0.4545 1.63069e-05
 584 3.96772e-05 0.480997 0.4545 9.58939e-06
 585 3.96772e-05 0.450483 0.4545 8.41131e-06
 586 3.96772e-05 0.450483 0.4545 8.41131e-06
 587 3.96772e-05 0.480997 0.4545 9.58939e-06
 588 3.96772e-05 0.627239 0.4545 1.63069e-05
 589 3.96772e-05 0.572796 0.4545 1.3599e-05
 590 3.96772e-05 0.659108 0.4545 1.80061e-05
 591 3.96772e-05 0.575912 0.4545 1.37473e-05
 592 3.96772e-05 0.573359 0.4545 1.36257e-05
 593 3.96772e-05 0.659108 0.4545 1.80061e-05
 594 3.96772e-05 0.572796 0.4545 1.3599e-05
 595 3.96772e-05 0.572796 0.4545 1.3599e-05
 596 3.96772e-05 0.659108 0.4545 1.80061e-05
 597 3.96772e-05 0.575912 0.4545 1.37473e-05
 598 3.96772e-05 0.573359 0.4545 1.36257e-05
 599 3.96772e-05 0.659108 0.4545 1.80061e-05
 600 3.96772e-05 0.572796 0.4545 1.3599e-05
 601 3.96772e-05 0.572796 0.4545 1.3599e-05
 602 3.96772e-05 0.659108 0.4545 1.80061e-05
 603 3.96772e-05 0.573359 0.4545 1.36257e-05
 604 3.96772e-05 0.575912 0.4545 1.37473e-05
 605 3.96772e-05 0.659108 0.4545 1.80061e-05
 606 3.96772e-05 0.572796 0.4545 1.3599e-05
 607 3.96772e-05 0.572796 0.4545 1.3599e-05
 608 3.96772e-05 0.659108 0.4545 1.80061e-05
 609 3.96772e-05 0.573359 0.4545 1.36257e-05
 610 3.96772e-05 0.575912 0.4545 1.37473e-05
 611 3.96772e-05 0.659108 0.4545 1.80061e-05
 612 3.96772e-05 0.572796 0.4545 1.3599e-05
 613 3.96772e-05 0.627239 0.4545 1.63069e-05
 614 3.96772e-05 0.480997 0.4545 9.58939e-06
 615 3.96772e-05 0.450483 0.4545 8.41131e-06
 616 3.96772e-05 0.450483 0.4545 8.41131e-06
 617 3.96772e-05 0.480997 0.4545 9.58939e-06
 618 3.96772e-05 0.627239 0.4545 1.63069e-05
 619 3.96772e-05 0.627239 0.4545 1.63069e-05
 620 3.96772e-05 0.480997 0.4545 9.58939e-06
 621 3.96772e-05 0.450483 0.4545 8.41131e-06
 622 3.96772e-05 0.450483 0.4545 8.41131e-06
 623 3.96772e-05 0.480997 0.4545 9.58939e-06
 624 3.96772e-05 0.627239 0.4545 1.63069e-05
 625 3.96772e-05 0.651902 0.4545 1.76145e-05
 626 3.96772e-05 0.454838 0.4545 8.5747e-06
 627 3.96772e-05 0.464311 0.4545 8.93563e-06
 628 3.96772e-05 0.373837 0.4545 5.79257e-06
 629 3.96772e-05 0.473258 0.4545 9.28331e-06
 630 3.96772e-05 0.572399 0.4545 1.35801e-05
 631 3.96772e-05 0.651902 0.4545 1.76145e-05
 632 3.96772e-05 0.454838 0.4545 8.5747e-06
 633 3.96772e-05 0.464311 0.4545 8.93563e-06
 634 3.96772e-05 0.373837 0.4545 5.79257e-06
 635 3.96772e-05 0.473258 0.4545 9.28331e-06
 636 3.96772e-05 0.572399 0.4545 1.35801e-05
 637 3.96772e-05 0.643525 0.4545 1.71647e-05
 638 3.96772e-05 0.472662 0.4545 9.25994e-06
 639 3.96772e-05 0.447586 0.4545 8.30346e-06
 640 3.96772e-05 0.535287 0.4545 1.18763e-05
 641 3.96772e-05 0.406888 0.4545 6.8621e-06
 642 3.96772e-05 0.572412 0.4545 1.35808e-05
 643 3.96772e-05 0.643525 0.4545 1.71647e-05
 644 3.96772e-05 0.472662 0.4545 9.25994e-06
 645 3.96772e-05 0.447586 0.4545 8.30346e-06
 646 3.96772e-05 0.535287 0.4545 1.18763e-05
 647 3.96772e-05 0.406888 0.4545 6.8621e-06
 648 3.96772e-05 0.572412 0.4545 1.35808e-05
 649 3.96772e-05 0.643525 0.4545 1.71647e-05
 650 3.96772e-05 0.447586 0.4545 8.30346e-06
 651 3.96772e-05 0.472662 0.4545 9.25994e-06
 652 3.96772e-05 0.535287 0.4545 1.18763e-05
 653 3.96772e-05 0.406888 0.4545 6.8621e-06
 654 3.96772e-05 0.572412 0.4545 1.35808e-05
 655 3.96772e-05 0.643525 0.4545 1.71647e-05
 656 3.96772e-05 0.447586 0.4545 8.30346e-06
 657 3.96772e-05 0.472662 0.4545 9.25994e-06
 658 3.96772e-05 0.535287 0.4545 1.18763e-05
 659 3.96772e-05 0.406888 0.4545 6.8621e-06
 660 3.96772e-05 0.572412 0.4545 1.35808e-05
 661 3.96772e-05 0.651902 0.4545 1.76145e-05
 662 3.96772e-05 0.464311 0.4545 8.93563e-06
 663 3.96772e-05 0.454838 0.4545 8.5747e-06
 664 3.96772e-05 0.373837 0.4545 5.79257e-06
 665 3.96772e-05 0.473258 0.4545 9.28331e-06
 666 3.96772e-05 0.572399 0.4545 1.35801e-05
 667 3.96772e-05 0.651902 0.4545 1.76145e-05
 668 3.96772e-05 0.464311 0.4545 8.93563e-06