LAMMPS (8 Apr 2021)
# 2d SRD test: big + small particles

units		lj
atom_style	molecular

#atom_style	atomic
atom_modify	first cells	# treat big as first group atom list
dimension	3
boundary 	f p f		# x periodic y fix z periodic
#processors 8 5 1 map zyx
# create big particles with sigma 1.0

lattice		sc 1 # reduced density: factor^2=1/0.4
Lattice spacing in x,y,z = 1.0000000 1.0000000 1.0000000
bond_style      wlc/pow
angle_style     rbc
dihedral_style  bend
read_data       in.cells
Reading data file ...
  orthogonal box = (0.0000000 0.0000000 0.0000000) to (20.000000 20.000000 40.000000)
  1 by 1 by 2 MPI processor grid
  reading atoms ...
  42 atoms
  scanning bonds ...
  5 = max bonds/atom
  scanning angles ...
  4 = max angles/atom
  scanning dihedrals ...
  5 = max dihedrals/atom
  reading bonds ...
  120 bonds
  reading angles ...
  80 angles
  reading dihedrals ...
  120 dihedrals
Finding 1-2 1-3 1-4 neighbors ...
  special bond factors lj:    0        0        0       
  special bond factors coul:  0        0        0       
     6 = max # of 1-2 neighbors
    28 = max # of 1-3 neighbors
   160 = max # of 1-4 neighbors
    28 = max # of special neighbors
  special bonds CPU = 0.000 seconds
  read_data CPU = 0.009 seconds

#pair_style lj/cut 3
#pair_coeff 1 1 0 2 3
#set		type 1 mass 5000.0
#mass            1 20

pair_style soft 1.0
pair_coeff * * 1e-8 1.5
#pair_coeff 1 2 2e-8 1.5
#group big type 1
group           cells type 1
42 atoms in group cells
#group  wall type 2
#velocity	cells create 4e-7 87287 loop geom # set/change group (big) velocity at temperature=1.44,


reset_timestep	0 # reset timestep to 0

#neighbor	0.0 bin # set atom neighbor list for each atom
neighbor	0.5 bin	    # create neighbor list: set skin=0.3, using bin style
neigh_modify	delay 0 every 1 check yes exclude molecule/intra cells
#neigh_modify    exclude molecule plt
comm_modify cutoff 5
# by (atom_modify first big)

# no pairwise interactions with small particles

# use fix SRD to push small particles out from inside big ones

timestep	100

#fix		1 all nve
fix 2 cells fcm 1
#fix 3 wall move linear 0 0 0
#fix 4 cells viscous 0.1
#     nevery LBtype dynamic_vis rho
#fix 2 cells lb/fluid 1 1 0.1667 1 dx 1 dm 1 printfluid 100 zwall_velocity 0 1e-5
#fix 2 cells lbm 1 1 0.1667 1 dx 1 dm 1 printfluid 100 zwall_velocity 0 1e-5
#fix 2 cells lbm 1 1 0.1667 1 dx 1 dm 1 printfluid 100 zlo velocity 0 0 0 zhi velocity 0 1e-5 0
#fix 2 cells lbm 1 1 0.1667 1 dx 1 dm 1 printfluid 100 periodic 0 0 0 xlo wall xhi wall ylo wall yhi wall zlo velocity 0 0 0 zhi velocity 0 1e-5 0
#fix 3 cells lb/viscous
#fix             4 big move rotate 15 15 0 0 0 1 100
#fix             4 btm freeze
#fix             4 big setforce 0.0 0.0 0.0

#thermo		100
#run             1000000

#compute		tbig cells temp # computing temperature (temp) for atoms (big), name it as (tbig)
#variable	pebig equal pe*atoms/count(cells) # varialbe (pebig)= pe*atoms/count(big)
#variable	ebig equal etotal*atoms/count(cells)

#thermo_modify	temp tbig
#thermo_modify   lost ignore
# reset (temp) defined in thermo_style as (tbig)
#thermo		100
#run             1000000
# output thermodynamic infor every 100 timesteps
dump            1 cells xyz 10 dump.rbc.xyz
#dump           2 all custom 500 dump.rbc.force id fx fy fz
#dump           3 all custom 500 dump.rbc.vel id vx vy vz
run	      1
Neighbor list info ...
  update every 1 steps, delay 0 steps, check yes
  max neighbors/atom: 2000, page size: 100000
  master list distance cutoff = 2
  ghost atom cutoff = 5
  binsize = 1, bins = 20 20 40
  1 neighbor lists, perpetual/occasional/extra = 1 0 0
  (1) pair soft, perpetual
      attributes: half, newton on
      pair build: half/bin/newton
      stencil: half/bin/3d
      bin: standard
WARNING: Communication cutoff 5 is shorter than a bond length based estimate of 6.1051775. This may lead to errors. (../comm.cpp:729)
Per MPI rank memory allocation (min/avg/max) = 12.16 | 12.16 | 12.16 Mbytes
Step Temp E_pair E_mol TotEng Press 
       0            0            0 0.0013306576 0.0013306576 1.0920508e-10 
       1            0            0 0.0013306576 0.0013306576 1.0920508e-10 
Loop time of 5.955e-05 on 2 procs for 1 steps with 42 atoms

Performance: 145088161209.067 tau/day, 16792.611 timesteps/s
0.0% CPU use with 2 MPI tasks x no OpenMP threads

MPI task timing breakdown:
Section |  min time  |  avg time  |  max time  |%varavg| %total
---------------------------------------------------------------
Pair    | 1.9e-06    | 1.95e-06   | 2e-06      |   0.0 |  3.27
Bond    | 1.12e-05   | 1.335e-05  | 1.55e-05   |   0.0 | 22.42
Neigh   | 0          | 0          | 0          |   0.0 |  0.00
Comm    | 6.7e-06    | 8.85e-06   | 1.1e-05    |   0.0 | 14.86
Output  | 6e-06      | 1.385e-05  | 2.17e-05   |   0.0 | 23.26
Modify  | 4e-06      | 4.2e-06    | 4.4e-06    |   0.0 |  7.05
Other   |            | 1.735e-05  |            |       | 29.14

Nlocal:        21.0000 ave          30 max          12 min
Histogram: 1 0 0 0 0 0 0 0 0 1
Nghost:        22.0000 ave          31 max          13 min
Histogram: 1 0 0 0 0 0 0 0 0 1
Neighs:         0.00000 ave           0 max           0 min
Histogram: 2 0 0 0 0 0 0 0 0 0

Total # of neighbors = 0
Ave neighs/atom = 0.0000000
Ave special neighs/atom = 27.142857
Neighbor list builds = 0
Dangerous builds = 0
run 1 pre no post no
Step Temp E_pair E_mol TotEng Press 
       1            0            0 0.0013306576 0.0013306576 1.0920508e-10 
       2            0            0 0.0013306576 0.0013306576 1.0920508e-10 
Loop time of 4.985e-05 on 2 procs for 1 steps with 42 atoms

run 1 pre no post no
Step Temp E_pair E_mol TotEng Press 
       2 2.220472e-10            0 0.0013306576 0.0013306579 1.0977408e-10 
       3 2.220472e-10            0 0.0013306576 0.0013306579 9.2537336e-11 
Loop time of 5.375e-05 on 2 procs for 1 steps with 42 atoms

run 1 pre no post no
Step Temp E_pair E_mol TotEng Press 
       3 2.2203744e-10            0 0.0013306576 0.0013306579 9.2537311e-11 
       4 2.2203744e-10            0 0.0013306577  0.001330658 6.4422576e-11 
Loop time of 4.77e-05 on 2 procs for 1 steps with 42 atoms

run 1 pre no post no
Step Temp E_pair E_mol TotEng Press 
       4 2.2190471e-10            0 0.0013306577  0.001330658 6.4422236e-11 
       5 2.2190471e-10            0 0.0013306577  0.001330658 3.0506003e-11 
Loop time of 4.905e-05 on 2 procs for 1 steps with 42 atoms

run 1 pre no post no
Step Temp E_pair E_mol TotEng Press 
       5 2.2167525e-10            0 0.0013306577  0.001330658 3.0505415e-11 
       6 2.2167525e-10            0 0.0013306578 0.0013306581 -4.2575105e-12 
Loop time of 5.015e-05 on 2 procs for 1 steps with 42 atoms

run 1 pre no post no
Step Temp E_pair E_mol TotEng Press 
       6 2.2136899e-10            0 0.0013306578 0.0013306581 -4.2582953e-12 
       7 2.2136899e-10            0 0.0013306578 0.0013306582 -3.6700924e-11 
Loop time of 4.9e-05 on 2 procs for 1 steps with 42 atoms

run 1 pre no post no
Step Temp E_pair E_mol TotEng Press 
       7 2.2102085e-10            0 0.0013306578 0.0013306582 -3.6701816e-11 
       8 2.2102085e-10            0 0.0013306579 0.0013306582 -6.5634195e-11 
Loop time of 4.715e-05 on 2 procs for 1 steps with 42 atoms

run 1 pre no post no
Step Temp E_pair E_mol TotEng Press 
       8 2.2064712e-10            0 0.0013306579 0.0013306582 -6.5635153e-11 
       9 2.2064712e-10            0  0.001330658 0.0013306583 -9.1498511e-11 
Loop time of 5.125e-05 on 2 procs for 1 steps with 42 atoms

run 1 pre no post no
Step Temp E_pair E_mol TotEng Press 
       9 2.2026373e-10            0  0.001330658 0.0013306583 -9.1499494e-11 
      10 2.2026373e-10            0 0.0013306581 0.0013306584 -1.1553109e-10 
Loop time of 0.0001135 on 2 procs for 1 steps with 42 atoms

run 1 pre no post no
Step Temp E_pair E_mol TotEng Press 
      10 2.1987224e-10            0 0.0013306581 0.0013306584 -1.1553209e-10 
      11 2.1987224e-10            0 0.0013306582 0.0013306585 -1.3910328e-10 
Loop time of 4.85e-05 on 2 procs for 1 steps with 42 atoms

run 1 pre no post no
Step Temp E_pair E_mol TotEng Press 
      11 2.1947532e-10            0 0.0013306582 0.0013306585 -1.3910429e-10 
      12 2.1947532e-10            0 0.0013306583 0.0013306587 -1.632541e-10 
Loop time of 4.96e-05 on 2 procs for 1 steps with 42 atoms

run 1 pre no post no
Step Temp E_pair E_mol TotEng Press 
      12 2.1906858e-10            0 0.0013306583 0.0013306587 -1.6325514e-10 
      13 2.1906858e-10            0 0.0013306585 0.0013306588 -1.8852038e-10 
Loop time of 7.905e-05 on 2 procs for 1 steps with 42 atoms

run 1 pre no post no
Step Temp E_pair E_mol TotEng Press 
      13 2.1865114e-10            0 0.0013306585 0.0013306588 -1.8852145e-10 
      14 2.1865114e-10            0 0.0013306586 0.0013306589 -2.1495764e-10 
Loop time of 4.895e-05 on 2 procs for 1 steps with 42 atoms

run 1 pre no post no
Step Temp E_pair E_mol TotEng Press 
      14 2.1821878e-10            0 0.0013306586 0.0013306589 -2.1495875e-10 
      15 2.1821878e-10            0 0.0013306587  0.001330659 -2.4226541e-10 
Loop time of 4.82e-05 on 2 procs for 1 steps with 42 atoms

run 1 pre no post no
Step Temp E_pair E_mol TotEng Press 
      15 2.1777102e-10            0 0.0013306587  0.001330659 -2.4226656e-10 
      16 2.1777102e-10            0 0.0013306589 0.0013306592 -2.6995823e-10 
Loop time of 5.115e-05 on 2 procs for 1 steps with 42 atoms

run 1 pre no post no
Step Temp E_pair E_mol TotEng Press 
      16 2.1730534e-10            0 0.0013306589 0.0013306592 -2.6995942e-10 
      17 2.1730534e-10            0  0.001330659 0.0013306593 -2.9749902e-10 
Loop time of 4.725e-05 on 2 procs for 1 steps with 42 atoms

run 1 pre no post no
Step Temp E_pair E_mol TotEng Press 
      17 2.1682229e-10            0  0.001330659 0.0013306593 -2.9750025e-10 
      18 2.1682229e-10            0 0.0013306591 0.0013306594 -3.2441133e-10 
Loop time of 4.61e-05 on 2 procs for 1 steps with 42 atoms

run 1 pre no post no
Step Temp E_pair E_mol TotEng Press 
      18 2.1632079e-10            0 0.0013306591 0.0013306594 -3.2441261e-10 
      19 2.1632079e-10            0 0.0013306593 0.0013306596 -3.5031794e-10 
Loop time of 5.415e-05 on 2 procs for 1 steps with 42 atoms

run 1 pre no post no
Step Temp E_pair E_mol TotEng Press 
      19 2.1580218e-10            0 0.0013306593 0.0013306596 -3.5031927e-10 
      20 2.1580218e-10            0 0.0013306594 0.0013306597 -3.7496439e-10 
Loop time of 0.00012155 on 2 procs for 1 steps with 42 atoms

run 1 pre no post no
Step Temp E_pair E_mol TotEng Press 
      20 2.1526641e-10            0 0.0013306594 0.0013306597 -3.7496576e-10 
      21 2.1526641e-10            0 0.0013306595 0.0013306598 -3.981881e-10 
Loop time of 4.72e-05 on 2 procs for 1 steps with 42 atoms

run 1 pre no post no
Step Temp E_pair E_mol TotEng Press 
      21 2.1471536e-10            0 0.0013306595 0.0013306598 -3.9818951e-10 
      22 2.1471536e-10            0 0.0013306596   0.00133066 -4.19901e-10 
Loop time of 4.935e-05 on 2 procs for 1 steps with 42 atoms

run 1 pre no post no
Step Temp E_pair E_mol TotEng Press 
      22 2.1414973e-10            0 0.0013306596 0.0013306599 -4.1990245e-10 
      23 2.1414973e-10            0 0.0013306598 0.0013306601 -4.400438e-10 
Loop time of 8.335e-05 on 2 procs for 1 steps with 42 atoms

run 1 pre no post no
Step Temp E_pair E_mol TotEng Press 
      23 2.1357176e-10            0 0.0013306598 0.0013306601 -4.4004529e-10 
      24 2.1357176e-10            0 0.0013306599 0.0013306602 -4.5857265e-10 
Loop time of 5.05e-05 on 2 procs for 1 steps with 42 atoms

run 1 pre no post no
Step Temp E_pair E_mol TotEng Press 
      24 2.1298266e-10            0 0.0013306599 0.0013306602 -4.5857416e-10 
      25 2.1298266e-10            0   0.00133066 0.0013306603 -4.7542972e-10 
Loop time of 4.905e-05 on 2 procs for 1 steps with 42 atoms

run 1 pre no post no
Step Temp E_pair E_mol TotEng Press 
      25 2.123849e-10            0   0.00133066 0.0013306603 -4.7543126e-10 
      26 2.123849e-10            0 0.0013306601 0.0013306604 -4.9054939e-10 
Loop time of 5.005e-05 on 2 procs for 1 steps with 42 atoms

run 1 pre no post no
Step Temp E_pair E_mol TotEng Press 
      26 2.1178001e-10            0 0.0013306601 0.0013306604 -4.9055094e-10 
      27 2.1178001e-10            0 0.0013306602 0.0013306605 -5.0384814e-10 
Loop time of 5.01e-05 on 2 procs for 1 steps with 42 atoms

run 1 pre no post no
Step Temp E_pair E_mol TotEng Press 
      27 2.1117049e-10            0 0.0013306602 0.0013306605 -5.038497e-10 
      28 2.1117049e-10            0 0.0013306603 0.0013306606 -5.1524445e-10 
Loop time of 4.825e-05 on 2 procs for 1 steps with 42 atoms

run 1 pre no post no
Step Temp E_pair E_mol TotEng Press 
      28  2.10558e-10            0 0.0013306603 0.0013306606 -5.1524602e-10 
      29  2.10558e-10            0 0.0013306604 0.0013306607 -5.24658e-10 
Loop time of 7.775e-05 on 2 procs for 1 steps with 42 atoms

run 1 pre no post no
Step Temp E_pair E_mol TotEng Press 
      29 2.0994494e-10            0 0.0013306604 0.0013306607 -5.2465957e-10 
      30 2.0994494e-10            0 0.0013306605 0.0013306608 -5.3203228e-10 
Loop time of 0.00012115 on 2 procs for 1 steps with 42 atoms

run 1 pre no post no
Step Temp E_pair E_mol TotEng Press 
      30 2.093329e-10            0 0.0013306605 0.0013306608 -5.3203385e-10 
      31 2.093329e-10            0 0.0013306606 0.0013306609 -5.3733347e-10 
Loop time of 5.085e-05 on 2 procs for 1 steps with 42 atoms

run 1 pre no post no
Step Temp E_pair E_mol TotEng Press 
      31 2.0872402e-10            0 0.0013306606 0.0013306609 -5.3733503e-10 
      32 2.0872402e-10            0 0.0013306607  0.001330661 -5.4056856e-10 
Loop time of 5.1e-05 on 2 procs for 1 steps with 42 atoms

run 1 pre no post no
Step Temp E_pair E_mol TotEng Press 
      32 2.0811966e-10            0 0.0013306607  0.001330661 -5.405701e-10 
      33 2.0811966e-10            0 0.0013306608 0.0013306611 -5.4177936e-10 
Loop time of 5.305e-05 on 2 procs for 1 steps with 42 atoms

run 1 pre no post no
Step Temp E_pair E_mol TotEng Press 
      33 2.0752163e-10            0 0.0013306608 0.0013306611 -5.4178089e-10 
      34 2.0752163e-10            0 0.0013306609 0.0013306612 -5.4105397e-10 
Loop time of 5.425e-05 on 2 procs for 1 steps with 42 atoms

run 1 pre no post no
Step Temp E_pair E_mol TotEng Press 
      34 2.0693095e-10            0 0.0013306609 0.0013306612 -5.4105549e-10 
      35 2.0693095e-10            0  0.001330661 0.0013306613 -5.3851542e-10 
Loop time of 5.12e-05 on 2 procs for 1 steps with 42 atoms

run 1 pre no post no
Step Temp E_pair E_mol TotEng Press 
      35 2.0634903e-10            0  0.001330661 0.0013306613 -5.3851691e-10 
      36 2.0634903e-10            0  0.001330661 0.0013306613 -5.3432741e-10 
Loop time of 5.165e-05 on 2 procs for 1 steps with 42 atoms

run 1 pre no post no
Step Temp E_pair E_mol TotEng Press 
      36 2.0577656e-10            0  0.001330661 0.0013306613 -5.3432888e-10 
      37 2.0577656e-10            0 0.0013306611 0.0013306614 -5.2867925e-10 
Loop time of 5.37e-05 on 2 procs for 1 steps with 42 atoms

run 1 pre no post no
Step Temp E_pair E_mol TotEng Press 
      37 2.0521458e-10            0 0.0013306611 0.0013306614 -5.2868069e-10 
      38 2.0521458e-10            0 0.0013306612 0.0013306615 -5.2178808e-10 
Loop time of 5.09e-05 on 2 procs for 1 steps with 42 atoms

run 1 pre no post no
Step Temp E_pair E_mol TotEng Press 
      38 2.0466347e-10            0 0.0013306612 0.0013306615 -5.2178949e-10 
      39 2.0466347e-10            0 0.0013306612 0.0013306615 -5.138825e-10 
Loop time of 8.27e-05 on 2 procs for 1 steps with 42 atoms

run 1 pre no post no
Step Temp E_pair E_mol TotEng Press 
      39 2.0412395e-10            0 0.0013306612 0.0013306615 -5.1388388e-10 
      40 2.0412395e-10            0 0.0013306613 0.0013306616 -5.0520369e-10 
Loop time of 0.00020435 on 2 procs for 1 steps with 42 atoms

run 1 pre no post no
Step Temp E_pair E_mol TotEng Press 
      40 2.0359618e-10            0 0.0013306613 0.0013306616 -5.0520504e-10 
      41 2.0359618e-10            0 0.0013306613 0.0013306616 -4.9599001e-10 
Loop time of 0.00013755 on 2 procs for 1 steps with 42 atoms

run 1 pre no post no
Step Temp E_pair E_mol TotEng Press 
      41 2.0308063e-10            0 0.0013306613 0.0013306616 -4.9599133e-10 
      42 2.0308063e-10            0 0.0013306614 0.0013306617 -4.8647917e-10 
Loop time of 6.155e-05 on 2 procs for 1 steps with 42 atoms

run 1 pre no post no
Step Temp E_pair E_mol TotEng Press 
      42 2.0257733e-10            0 0.0013306614 0.0013306617 -4.8648046e-10 
      43 2.0257733e-10            0 0.0013306614 0.0013306617 -4.7689527e-10 
Loop time of 6.305e-05 on 2 procs for 1 steps with 42 atoms

run 1 pre no post no
Step Temp E_pair E_mol TotEng Press 
      43 2.0208658e-10            0 0.0013306614 0.0013306617 -4.7689653e-10 
      44 2.0208658e-10            0 0.0013306615 0.0013306618 -4.6745317e-10 
Loop time of 5.145e-05 on 2 procs for 1 steps with 42 atoms

run 1 pre no post no
Step Temp E_pair E_mol TotEng Press 
      44 2.0160831e-10            0 0.0013306615 0.0013306618 -4.6745439e-10 
      45 2.0160831e-10            0 0.0013306615 0.0013306618 -4.5834845e-10 
Loop time of 5.17e-05 on 2 procs for 1 steps with 42 atoms

run 1 pre no post no
Step Temp E_pair E_mol TotEng Press 
      45 2.0114273e-10            0 0.0013306615 0.0013306618 -4.5834965e-10 
      46 2.0114273e-10            0 0.0013306616 0.0013306618 -4.4976403e-10 
Loop time of 5.04e-05 on 2 procs for 1 steps with 42 atoms

run 1 pre no post no
Step Temp E_pair E_mol TotEng Press 
      46 2.0068971e-10            0 0.0013306616 0.0013306618 -4.4976519e-10 
      47 2.0068971e-10            0 0.0013306616 0.0013306619 -4.4186274e-10 
Loop time of 5.095e-05 on 2 procs for 1 steps with 42 atoms

run 1 pre no post no
Step Temp E_pair E_mol TotEng Press 
      47 2.0024938e-10            0 0.0013306616 0.0013306619 -4.4186387e-10 
      48 2.0024938e-10            0 0.0013306616 0.0013306619 -4.347947e-10 
Loop time of 8.825e-05 on 2 procs for 1 steps with 42 atoms

run 1 pre no post no
Step Temp E_pair E_mol TotEng Press 
      48 1.9982157e-10            0 0.0013306616 0.0013306619 -4.347958e-10 
      49 1.9982157e-10            0 0.0013306616 0.0013306619 -4.2869112e-10 
Loop time of 5.065e-05 on 2 procs for 1 steps with 42 atoms

run 1 pre no post no
Step Temp E_pair E_mol TotEng Press 
      49 1.9940634e-10            0 0.0013306616 0.0013306619 -4.2869219e-10 
      50 1.9940634e-10            0 0.0013306617  0.001330662 -4.2367171e-10 
Loop time of 0.0001183 on 2 procs for 1 steps with 42 atoms

run 1 pre no post no
Step Temp E_pair E_mol TotEng Press 
      50 1.9900346e-10            0 0.0013306617  0.001330662 -4.2367274e-10 
      51 1.9900346e-10            0 0.0013306617  0.001330662 -4.198385e-10 
Loop time of 5.44e-05 on 2 procs for 1 steps with 42 atoms

run 1 pre no post no
Step Temp E_pair E_mol TotEng Press 
      51 1.9861294e-10            0 0.0013306617  0.001330662 -4.198395e-10 
      52 1.9861294e-10            0 0.0013306617  0.001330662 -4.1728314e-10 
Loop time of 4.99e-05 on 2 procs for 1 steps with 42 atoms

run 1 pre no post no
Step Temp E_pair E_mol TotEng Press 
      52 1.9823448e-10            0 0.0013306617  0.001330662 -4.1728411e-10 
      53 1.9823448e-10            0 0.0013306617  0.001330662 -4.1608094e-10 
Loop time of 5.075e-05 on 2 procs for 1 steps with 42 atoms

run 1 pre no post no
Step Temp E_pair E_mol TotEng Press 
      53 1.9786801e-10            0 0.0013306617  0.001330662 -4.1608188e-10 
      54 1.9786801e-10            0 0.0013306618 0.0013306621 -4.1629777e-10 
Loop time of 5.28e-05 on 2 procs for 1 steps with 42 atoms

run 1 pre no post no
Step Temp E_pair E_mol TotEng Press 
      54 1.9751319e-10            0 0.0013306618 0.0013306621 -4.1629868e-10 
      55 1.9751319e-10            0 0.0013306618 0.0013306621 -4.1798366e-10 
Loop time of 5.045e-05 on 2 procs for 1 steps with 42 atoms

run 1 pre no post no
Step Temp E_pair E_mol TotEng Press 
      55 1.9716988e-10            0 0.0013306618 0.0013306621 -4.1798454e-10 
      56 1.9716988e-10            0 0.0013306618 0.0013306621 -4.2117939e-10 
Loop time of 4.955e-05 on 2 procs for 1 steps with 42 atoms

run 1 pre no post no
Step Temp E_pair E_mol TotEng Press 
      56 1.968377e-10            0 0.0013306618 0.0013306621 -4.2118025e-10 
      57 1.968377e-10            0 0.0013306618 0.0013306621 -4.2591048e-10 
Loop time of 5.65e-05 on 2 procs for 1 steps with 42 atoms

run 1 pre no post no
Step Temp E_pair E_mol TotEng Press 
      57 1.9651645e-10            0 0.0013306618 0.0013306621 -4.259113e-10 
      58 1.9651645e-10            0 0.0013306618 0.0013306621 -4.3219322e-10 
Loop time of 0.00022075 on 2 procs for 1 steps with 42 atoms

run 1 pre no post no
Step Temp E_pair E_mol TotEng Press 
      58 1.9620574e-10            0 0.0013306618 0.0013306621 -4.3219401e-10 
      59 1.9620574e-10            0 0.0013306618 0.0013306621 -4.4002933e-10 
Loop time of 4.88e-05 on 2 procs for 1 steps with 42 atoms

run 1 pre no post no
Step Temp E_pair E_mol TotEng Press 
      59 1.9590537e-10            0 0.0013306618 0.0013306621 -4.400301e-10 
      60 1.9590537e-10            0 0.0013306619 0.0013306621 -4.4941218e-10 
Loop time of 0.00013585 on 2 procs for 1 steps with 42 atoms

run 1 pre no post no
Step Temp E_pair E_mol TotEng Press 
      60 1.9561493e-10            0 0.0013306619 0.0013306621 -4.4941292e-10 
      61 1.9561493e-10            0 0.0013306619 0.0013306621 -4.6032182e-10 
Loop time of 5.21e-05 on 2 procs for 1 steps with 42 atoms

run 1 pre no post no
Step Temp E_pair E_mol TotEng Press 
      61 1.9533421e-10            0 0.0013306619 0.0013306621 -4.6032254e-10 
      62 1.9533421e-10            0 0.0013306619 0.0013306622 -4.7273116e-10 
Loop time of 5.065e-05 on 2 procs for 1 steps with 42 atoms

run 1 pre no post no
Step Temp E_pair E_mol TotEng Press 
      62 1.9506282e-10            0 0.0013306619 0.0013306622 -4.7273186e-10 
      63 1.9506282e-10            0 0.0013306619 0.0013306622 -4.8660143e-10 
Loop time of 4.75e-05 on 2 procs for 1 steps with 42 atoms

run 1 pre no post no
Step Temp E_pair E_mol TotEng Press 
      63 1.9480054e-10            0 0.0013306619 0.0013306622 -4.866021e-10 
      64 1.9480054e-10            0 0.0013306619 0.0013306622 -5.0188823e-10 
Loop time of 4.69e-05 on 2 procs for 1 steps with 42 atoms

run 1 pre no post no
Step Temp E_pair E_mol TotEng Press 
      64  1.94547e-10            0 0.0013306619 0.0013306622 -5.0188888e-10 
      65  1.94547e-10            0 0.0013306619 0.0013306622 -5.1853738e-10 
Loop time of 5.105e-05 on 2 procs for 1 steps with 42 atoms

run 1 pre no post no
Step Temp E_pair E_mol TotEng Press 
      65 1.9430197e-10            0 0.0013306619 0.0013306622 -5.1853801e-10 
      66 1.9430197e-10            0 0.0013306619 0.0013306622 -5.3649085e-10 
Loop time of 4.845e-05 on 2 procs for 1 steps with 42 atoms

run 1 pre no post no
Step Temp E_pair E_mol TotEng Press 
      66 1.9406508e-10            0 0.0013306619 0.0013306622 -5.3649146e-10 
      67 1.9406508e-10            0 0.0013306619 0.0013306622 -5.5568288e-10 
Loop time of 4.65e-05 on 2 procs for 1 steps with 42 atoms

run 1 pre no post no
Step Temp E_pair E_mol TotEng Press 
      67 1.9383611e-10            0 0.0013306619 0.0013306622 -5.5568346e-10 
      68 1.9383611e-10            0 0.0013306619 0.0013306622 -5.7604584e-10 
Loop time of 5.205e-05 on 2 procs for 1 steps with 42 atoms

run 1 pre no post no
Step Temp E_pair E_mol TotEng Press 
      68 1.9361469e-10            0 0.0013306619 0.0013306622 -5.7604641e-10 
      69 1.9361469e-10            0 0.0013306619 0.0013306622 -5.9750646e-10 
Loop time of 4.74e-05 on 2 procs for 1 steps with 42 atoms

run 1 pre no post no
Step Temp E_pair E_mol TotEng Press 
      69 1.9340059e-10            0 0.0013306619 0.0013306622 -5.9750701e-10 
      70 1.9340059e-10            0 0.0013306619 0.0013306622 -6.1999146e-10 
Loop time of 0.0001745 on 2 procs for 1 steps with 42 atoms

run 1 pre no post no
Step Temp E_pair E_mol TotEng Press 
      70 1.9319345e-10            0 0.0013306619 0.0013306622 -6.1999199e-10 
      71 1.9319345e-10            0 0.0013306619 0.0013306622 -6.434238e-10 
Loop time of 8.815e-05 on 2 procs for 1 steps with 42 atoms

run 1 pre no post no
Step Temp E_pair E_mol TotEng Press 
      71 1.9299306e-10            0 0.0013306619 0.0013306622 -6.4342432e-10 
      72 1.9299306e-10            0 0.0013306619 0.0013306622 -6.6772805e-10 
Loop time of 4.99e-05 on 2 procs for 1 steps with 42 atoms

run 1 pre no post no
Step Temp E_pair E_mol TotEng Press 
      72 1.927991e-10            0 0.0013306619 0.0013306622 -6.6772854e-10 
      73 1.927991e-10            0 0.0013306619 0.0013306622 -6.9282651e-10 
Loop time of 4.915e-05 on 2 procs for 1 steps with 42 atoms

run 1 pre no post no
Step Temp E_pair E_mol TotEng Press 
      73 1.9261135e-10            0 0.0013306619 0.0013306622 -6.9282699e-10 
      74 1.9261135e-10            0 0.0013306619 0.0013306622 -7.1864448e-10 
Loop time of 5.03e-05 on 2 procs for 1 steps with 42 atoms

run 1 pre no post no
Step Temp E_pair E_mol TotEng Press 
      74 1.9242954e-10            0 0.0013306619 0.0013306622 -7.1864495e-10 
      75 1.9242954e-10            0 0.0013306619 0.0013306622 -7.4510616e-10 
Loop time of 5.05e-05 on 2 procs for 1 steps with 42 atoms

run 1 pre no post no
Step Temp E_pair E_mol TotEng Press 
      75 1.9225349e-10            0 0.0013306619 0.0013306622 -7.4510661e-10 
      76 1.9225349e-10            0 0.0013306619 0.0013306622 -7.7213917e-10 
Loop time of 5.02e-05 on 2 procs for 1 steps with 42 atoms

run 1 pre no post no
Step Temp E_pair E_mol TotEng Press 
      76 1.9208296e-10            0 0.0013306619 0.0013306622 -7.7213961e-10 
      77 1.9208296e-10            0 0.0013306619 0.0013306622 -7.9967069e-10 
Loop time of 4.74e-05 on 2 procs for 1 steps with 42 atoms

run 1 pre no post no
Step Temp E_pair E_mol TotEng Press 
      77 1.9191783e-10            0 0.0013306619 0.0013306622 -7.9967111e-10 
      78 1.9191783e-10            0 0.0013306619 0.0013306622 -8.2763185e-10 
Loop time of 5.035e-05 on 2 procs for 1 steps with 42 atoms

run 1 pre no post no
Step Temp E_pair E_mol TotEng Press 
      78 1.917579e-10            0 0.0013306619 0.0013306622 -8.2763226e-10 
      79 1.917579e-10            0 0.0013306619 0.0013306622 -8.5595395e-10 
Loop time of 5.04e-05 on 2 procs for 1 steps with 42 atoms

run 1 pre no post no
Step Temp E_pair E_mol TotEng Press 
      79 1.9160307e-10            0 0.0013306619 0.0013306622 -8.5595435e-10 
      80 1.9160307e-10            0 0.0013306619 0.0013306622 -8.845727e-10 
Loop time of 0.00011895 on 2 procs for 1 steps with 42 atoms

run 1 pre no post no
Step Temp E_pair E_mol TotEng Press 
      80 1.9145317e-10            0 0.0013306619 0.0013306622 -8.8457308e-10 
      81 1.9145317e-10            0 0.0013306619 0.0013306622 -9.1342447e-10 
Loop time of 5.655e-05 on 2 procs for 1 steps with 42 atoms

run 1 pre no post no
Step Temp E_pair E_mol TotEng Press 
      81 1.9130814e-10            0 0.0013306619 0.0013306622 -9.1342484e-10 
      82 1.9130814e-10            0 0.0013306619 0.0013306622 -9.4245031e-10 
Loop time of 5.08e-05 on 2 procs for 1 steps with 42 atoms

run 1 pre no post no
Step Temp E_pair E_mol TotEng Press 
      82 1.9116784e-10            0 0.0013306619 0.0013306622 -9.4245067e-10 
      83 1.9116784e-10            0 0.0013306619 0.0013306622 -9.715923e-10 
Loop time of 4.735e-05 on 2 procs for 1 steps with 42 atoms

run 1 pre no post no
Step Temp E_pair E_mol TotEng Press 
      83 1.910322e-10            0 0.0013306619 0.0013306622 -9.7159265e-10 
      84 1.910322e-10            0 0.0013306619 0.0013306622 -1.0007973e-09 
Loop time of 5.255e-05 on 2 procs for 1 steps with 42 atoms

run 1 pre no post no
Step Temp E_pair E_mol TotEng Press 
      84 1.909011e-10            0 0.0013306619 0.0013306622 -1.0007976e-09 
      85 1.909011e-10            0 0.0013306619 0.0013306622 -1.0300133e-09 
Loop time of 6.745e-05 on 2 procs for 1 steps with 42 atoms

run 1 pre no post no
Step Temp E_pair E_mol TotEng Press 
      85 1.9077447e-10            0 0.0013306619 0.0013306622 -1.0300136e-09 
      86 1.9077447e-10            0 0.0013306619 0.0013306622 -1.059193e-09 
Loop time of 5.235e-05 on 2 procs for 1 steps with 42 atoms

run 1 pre no post no
Step Temp E_pair E_mol TotEng Press 
      86 1.9065217e-10            0 0.0013306619 0.0013306622 -1.0591933e-09 
      87 1.9065217e-10            0 0.0013306619 0.0013306622 -1.0882903e-09 
Loop time of 5.1e-05 on 2 procs for 1 steps with 42 atoms

run 1 pre no post no
Step Temp E_pair E_mol TotEng Press 
      87 1.9053414e-10            0 0.0013306619 0.0013306622 -1.0882906e-09 
      88 1.9053414e-10            0 0.0013306619 0.0013306622 -1.1172634e-09 
Loop time of 4.99e-05 on 2 procs for 1 steps with 42 atoms

run 1 pre no post no
Step Temp E_pair E_mol TotEng Press 
      88 1.9042023e-10            0 0.0013306619 0.0013306622 -1.1172637e-09 
      89 1.9042023e-10            0 0.0013306619 0.0013306622 -1.1460711e-09 
Loop time of 4.735e-05 on 2 procs for 1 steps with 42 atoms

run 1 pre no post no
Step Temp E_pair E_mol TotEng Press 
      89 1.9031039e-10            0 0.0013306619 0.0013306622 -1.1460714e-09 
      90 1.9031039e-10            0 0.0013306619 0.0013306622 -1.1746761e-09 
Loop time of 0.0001215 on 2 procs for 1 steps with 42 atoms

run 1 pre no post no
Step Temp E_pair E_mol TotEng Press 
      90 1.9020446e-10            0 0.0013306619 0.0013306622 -1.1746764e-09 
      91 1.9020446e-10            0 0.0013306619 0.0013306622 -1.2030416e-09 
Loop time of 7.92e-05 on 2 procs for 1 steps with 42 atoms

run 1 pre no post no
Step Temp E_pair E_mol TotEng Press 
      91 1.9010239e-10            0 0.0013306619 0.0013306622 -1.2030418e-09 
      92 1.9010239e-10            0 0.0013306619 0.0013306622 -1.2311341e-09 
Loop time of 4.98e-05 on 2 procs for 1 steps with 42 atoms

run 1 pre no post no
Step Temp E_pair E_mol TotEng Press 
      92 1.9000403e-10            0 0.0013306619 0.0013306622 -1.2311344e-09 
      93 1.9000403e-10            0 0.0013306619 0.0013306622 -1.2589206e-09 
Loop time of 0.00014795 on 2 procs for 1 steps with 42 atoms

run 1 pre no post no
Step Temp E_pair E_mol TotEng Press 
      93 1.8990934e-10            0 0.0013306619 0.0013306622 -1.2589208e-09 
      94 1.8990934e-10            0 0.0013306619 0.0013306622 -1.2863713e-09 
Loop time of 4.955e-05 on 2 procs for 1 steps with 42 atoms

run 1 pre no post no
Step Temp E_pair E_mol TotEng Press 
      94 1.898182e-10            0 0.0013306619 0.0013306622 -1.2863715e-09 
      95 1.898182e-10            0 0.0013306619 0.0013306622 -1.3134564e-09 
Loop time of 4.96e-05 on 2 procs for 1 steps with 42 atoms

run 1 pre no post no
Step Temp E_pair E_mol TotEng Press 
      95 1.8973056e-10            0 0.0013306619 0.0013306622 -1.3134567e-09 
      96 1.8973056e-10            0 0.0013306619 0.0013306622 -1.3401496e-09 
Loop time of 9.625e-05 on 2 procs for 1 steps with 42 atoms

run 1 pre no post no
Step Temp E_pair E_mol TotEng Press 
      96 1.8964633e-10            0 0.0013306619 0.0013306622 -1.3401498e-09 
      97 1.8964633e-10            0 0.0013306619 0.0013306622 -1.3664245e-09 
Loop time of 5.085e-05 on 2 procs for 1 steps with 42 atoms

run 1 pre no post no
Step Temp E_pair E_mol TotEng Press 
      97 1.8956549e-10            0 0.0013306619 0.0013306622 -1.3664247e-09 
      98 1.8956549e-10            0 0.0013306619 0.0013306622 -1.3922584e-09 
Loop time of 4.915e-05 on 2 procs for 1 steps with 42 atoms

run 1 pre no post no
Step Temp E_pair E_mol TotEng Press 
      98 1.8948797e-10            0 0.0013306619 0.0013306622 -1.3922586e-09 
      99 1.8948797e-10            0 0.0013306619 0.0013306622 -1.4176291e-09 
Loop time of 4.72e-05 on 2 procs for 1 steps with 42 atoms

run 1 pre no post no
Step Temp E_pair E_mol TotEng Press 
      99 1.8941376e-10            0 0.0013306619 0.0013306622 -1.4176293e-09 
     100 1.8941376e-10            0 0.0013306619 0.0013306622 -1.4425183e-09 
Loop time of 0.0001565 on 2 procs for 1 steps with 42 atoms

run 1 pre no post no
Step Temp E_pair E_mol TotEng Press 
     100 1.8934282e-10            0 0.0013306619 0.0013306622 -1.4425184e-09 
     101 1.8934282e-10            0 0.0013306619 0.0013306622 -1.4669084e-09 
Loop time of 5.935e-05 on 2 procs for 1 steps with 42 atoms

