LAMMPS (8 Apr 2021)
Lattice spacing in x,y,z = 1.0000000 1.0000000 1.0000000
Reading data file ...
  orthogonal box = (0.0000000 0.0000000 0.0000000) to (20.000000 20.000000 40.000000)
  1 by 1 by 4 MPI processor grid
  reading atoms ...
  42 atoms
  scanning bonds ...
  5 = max bonds/atom
  scanning angles ...
  4 = max angles/atom
  scanning dihedrals ...
  5 = max dihedrals/atom
  reading bonds ...
  120 bonds
  reading angles ...
  80 angles
  reading dihedrals ...
  120 dihedrals
Finding 1-2 1-3 1-4 neighbors ...
  special bond factors lj:    0        0        0       
  special bond factors coul:  0        0        0       
     6 = max # of 1-2 neighbors
    28 = max # of 1-3 neighbors
   160 = max # of 1-4 neighbors
    28 = max # of special neighbors
  special bonds CPU = 0.000 seconds
  read_data CPU = 0.005 seconds
42 atoms in group cells
Neighbor list info ...
  update every 1 steps, delay 0 steps, check yes
  max neighbors/atom: 2000, page size: 100000
  master list distance cutoff = 2
  ghost atom cutoff = 10
  binsize = 1, bins = 20 20 40
  1 neighbor lists, perpetual/occasional/extra = 1 0 0
  (1) pair soft, perpetual
      attributes: half, newton on
      pair build: half/bin/newton
      stencil: half/bin/3d
      bin: standard
Setting up Verlet run ...
  Unit style    : lj
  Current step  : 0
  Time step     : 100
Per MPI rank memory allocation (min/avg/max) = 12.27 | 12.38 | 12.73 Mbytes
Step Temp E_pair E_mol TotEng Press 
       0            0            0 0.0013306576 0.0013306576 1.0920508e-10 
       1            0            0 0.0013306576 0.0013306576 1.0920508e-10 
Loop time of 4.075e-05 on 4 procs for 1 steps with 42 atoms

Performance: 212024539877.300 tau/day, 24539.877 timesteps/s
81.0% CPU use with 4 MPI tasks x no OpenMP threads

MPI task timing breakdown:
Section |  min time  |  avg time  |  max time  |%varavg| %total
---------------------------------------------------------------
Pair    | 3e-07      | 4e-07      | 5e-07      |   0.0 |  0.98
Bond    | 7.4e-06    | 9.7e-06    | 1.38e-05   |   0.0 | 23.80
Neigh   | 0          | 0          | 0          |   0.0 |  0.00
Comm    | 4.3e-06    | 7.025e-06  | 1e-05      |   0.0 | 17.24
Output  | 7.1e-06    | 1.14e-05   | 2.32e-05   |   0.0 | 27.98
Modify  | 3e-07      | 4.5e-07    | 6e-07      |   0.0 |  1.10
Other   |            | 1.178e-05  |            |       | 28.90

Nlocal:        10.5000 ave          30 max           0 min
Histogram: 2 0 0 0 1 0 0 0 0 1
Nghost:        52.5000 ave          72 max          24 min
Histogram: 1 0 0 0 0 0 1 1 0 1
Neighs:         0.00000 ave           0 max           0 min
Histogram: 4 0 0 0 0 0 0 0 0 0

Total # of neighbors = 0
Ave neighs/atom = 0.0000000
Ave special neighs/atom = 27.142857
Neighbor list builds = 0
Dangerous builds = 0
Nx,Ny,Nz 21 21 41
 z 0 proc 0
lammps domain 40 lo-hi in z 0 10
 z 1 proc 10
lammps domain 40 lo-hi in z 0 10
 z 2 proc 21
lammps domain 40 lo-hi in z 0 10
 z 3 proc 31
lammps domain 40 lo-hi in z 0 10
 z 4 proc 41
lammps domain 40 lo-hi in z 0 10
dx 1 dt  0.00075 tau 0.95
Step Temp E_pair E_mol TotEng Press 
       1            0            0 0.0013306576 0.0013306576 1.0920508e-10 
       2            0            0 0.0013306576 0.0013306576 1.0920508e-10 
Loop time of 0.00010025 on 4 procs for 1 steps with 42 atoms

RANK: 0 NLX: 21 NLY: 21 NLZ: 10
RANK: 0Before Velocity:  X: 0 Y: 0 Z: 0
RANK: 0Before Vorticity :  X: 0 Y: 0 Z: 0
RANK: 0Before Norm:  X: 0 Y: 0 Z: 0
RANK: 0Before Velocity TUPLE:  X: 0 Y: 0 Z: 0
RANK: 0Before Vorticity TUPLE:  X: 0 Y: 0 Z: 0
RANK: 0Before Norm TUPLE:  X: 0 Y: 0 Z: 0
RANK: 0Before Velocity:  X: 1 Y: 0 Z: 0
RANK: 0Before Vorticity :  X: 1 Y: 0 Z: 0
RANK: 0Before Norm:  X: 1 Y: 0 Z: 0
RANK: 0Before Velocity TUPLE:  X: 1 Y: 0 Z: 0
RANK: 0Before Vorticity TUPLE:  X: 1 Y: 0 Z: 0
RANK: 0Before Norm TUPLE:  X: 1 Y: 0 Z: 0
RANK: 0Before Velocity:  X: 2 Y: 0 Z: 0
RANK: 0Before Vorticity :  X: 2 Y: 0 Z: 0
RANK: 0Before Norm:  X: 2 Y: 0 Z: 0
RANK: 0Before Velocity TUPLE:  X: 2 Y: 0 Z: 0
RANK: 0Before Vorticity TUPLE:  X: 2 Y: 0 Z: 0
RANK: 0Before Norm TUPLE:  X: 2 Y: 0 Z: 0
RANK: 0Before Velocity:  X: 3 Y: 0 Z: 0
RANK: 0Before Vorticity :  X: 3 Y: 0 Z: 0
RANK: 0Before Norm:  X: 3 Y: 0 Z: 0
RANK: 0Before Velocity TUPLE:  X: 3 Y: 0 Z: 0
RANK: 0Before Vorticity TUPLE:  X: 3 Y: 0 Z: 0
RANK: 0Before Norm TUPLE:  X: 3 Y: 0 Z: 0
RANK: 0Before Velocity:  X: 4 Y: 0 Z: 0
RANK: 0Before Vorticity :  X: 4 Y: 0 Z: 0
RANK: 0Before Norm:  X: 4 Y: 0 Z: 0
RANK: 0Before Velocity TUPLE:  X: 4 Y: 0 Z: 0
RANK: 0Before Vorticity TUPLE:  X: 4 Y: 0 Z: 0
RANK: 0Before Norm TUPLE:  X: 4 Y: 0 Z: 0
RANK: 0Before Velocity:  X: 5 Y: 0 Z: 0
RANK: 0Before Vorticity :  X: 5 Y: 0 Z: 0
RANK: 0Before Norm:  X: 5 Y: 0 Z: 0
RANK: 0Before Velocity TUPLE:  X: 5 Y: 0 Z: 0
RANK: 0Before Vorticity TUPLE:  X: 5 Y: 0 Z: 0
RANK: 0Before Norm TUPLE:  X: 5 Y: 0 Z: 0
RANK: 0Before Velocity:  X: 6 Y: 0 Z: 0
RANK: 0Before Vorticity :  X: 6 Y: 0 Z: 0
RANK: 0Before Norm:  X: 6 Y: 0 Z: 0
RANK: 0Before Velocity TUPLE:  X: 6 Y: 0 Z: 0
RANK: 0Before Vorticity TUPLE:  X: 6 Y: 0 Z: 0
RANK: 0Before Norm TUPLE:  X: 6 Y: 0 Z: 0
RANK: 0Before Velocity:  X: 7 Y: 0 Z: 0
RANK: 0Before Vorticity :  X: 7 Y: 0 Z: 0
RANK: 0Before Norm:  X: 7 Y: 0 Z: 0
RANK: 0Before Velocity TUPLE:  X: 7 Y: 0 Z: 0
RANK: 0Before Vorticity TUPLE:  X: 7 Y: 0 Z: 0
RANK: 0Before Norm TUPLE:  X: 7 Y: 0 Z: 0
RANK: 0Before Velocity:  X: 8 Y: 0 Z: 0
RANK: 0Before Vorticity :  X: 8 Y: 0 Z: 0
RANK: 0Before Norm:  X: 8 Y: 0 Z: 0
RANK: 0Before Velocity TUPLE:  X: 8 Y: 0 Z: 0
RANK: 0Before Vorticity TUPLE:  X: 8 Y: 0 Z: 0
RANK: 0Before Norm TUPLE:  X: 8 Y: 0 Z: 0
RANK: 0Before Velocity:  X: 9 Y: 0 Z: 0
RANK: 0Before Vorticity :  X: 9 Y: 0 Z: 0
RANK: 0Before Norm:  X: 9 Y: 0 Z: 0
RANK: 0Before Velocity TUPLE:  X: 9 Y: 0 Z: 0
RANK: 0Before Vorticity TUPLE:  X: 9 Y: 0 Z: 0
RANK: 0Before Norm TUPLE:  X: 9 Y: 0 Z: 0
RANK: 0Before Velocity:  X: 10 Y: 0 Z: 0
RANK: 0Before Vorticity :  X: 10 Y: 0 Z: 0
RANK: 0Before Norm:  X: 10 Y: 0 Z: 0
RANK: 0Before Velocity TUPLE:  X: 10 Y: 0 Z: 0
RANK: 0Before Vorticity TUPLE:  X: 10 Y: 0 Z: 0
RANK: 0Before Norm TUPLE:  X: 10 Y: 0 Z: 0
RANK: 0Before Velocity:  X: 11 Y: 0 Z: 0
RANK: 0Before Vorticity :  X: 11 Y: 0 Z: 0
RANK: 0Before Norm:  X: 11 Y: 0 Z: 0
RANK: 0Before Velocity TUPLE:  X: 11 Y: 0 Z: 0
RANK: 0Before Vorticity TUPLE:  X: 11 Y: 0 Z: 0
RANK: 0Before Norm TUPLE:  X: 11 Y: 0 Z: 0
RANK: 0Before Velocity:  X: 12 Y: 0 Z: 0
RANK: 0Before Vorticity :  X: 12 Y: 0 Z: 0
RANK: 0Before Norm:  X: 12 Y: 0 Z: 0
RANK: 0Before Velocity TUPLE:  X: 12 Y: 0 Z: 0
RANK: 0Before Vorticity TUPLE:  X: 12 Y: 0 Z: 0
RANK: 0Before Norm TUPLE:  X: 12 Y: 0 Z: 0
RANK: 0Before Velocity:  X: 13 Y: 0 Z: 0
RANK: 0Before Vorticity :  X: 13 Y: 0 Z: 0
RANK: 0Before Norm:  X: 13 Y: 0 Z: 0
RANK: 0Before Velocity TUPLE:  X: 13 Y: 0 Z: 0
RANK: 0Before Vorticity TUPLE:  X: 13 Y: 0 Z: 0
RANK: 0Before Norm TUPLE:  X: 13 Y: 0 Z: 0
RANK: 0Before Velocity:  X: 14 Y: 0 Z: 0
RANK: 0Before Vorticity :  X: 14 Y: 0 Z: 0
RANK: 0Before Norm:  X: 14 Y: 0 Z: 0
RANK: 0Before Velocity TUPLE:  X: 14 Y: 0 Z: 0
RANK: 0Before Vorticity TUPLE:  X: 14 Y: 0 Z: 0
RANK: 0Before Norm TUPLE:  X: 14 Y: 0 Z: 0
RANK: 0Before Velocity:  X: 15 Y: 0 Z: 0
RANK: 0Before Vorticity :  X: 15 Y: 0 Z: 0
RANK: 0Before Norm:  X: 15 Y: 0 Z: 0
RANK: 0Before Velocity TUPLE:  X: 15 Y: 0 Z: 0
RANK: 0Before Vorticity TUPLE:  X: 15 Y: 0 Z: 0
RANK: 0Before Norm TUPLE:  X: 15 Y: 0 Z: 0
RANK: 0Before Velocity:  X: 16 Y: 0 Z: 0
RANK: 0Before Vorticity :  X: 16 Y: 0 Z: 0
RANK: 0Before Norm:  X: 16 Y: 0 Z: 0
RANK: 0Before Velocity TUPLE:  X: 16 Y: 0 Z: 0
RANK: 0Before Vorticity TUPLE:  X: 16 Y: 0 Z: 0
RANK: 0Before Norm TUPLE:  X: 16 Y: 0 Z: 0
RANK: 0Before Velocity:  X: 17 Y: 0 Z: 0
RANK: 0Before Vorticity :  X: 17 Y: 0 Z: 0
RANK: 0Before Norm:  X: 17 Y: 0 Z: 0
RANK: 0Before Velocity TUPLE:  X: 17 Y: 0 Z: 0
RANK: 0Before Vorticity TUPLE:  X: 17 Y: 0 Z: 0
RANK: 0Before Norm TUPLE:  X: 17 Y: 0 Z: 0
RANK: 0Before Velocity:  X: 18 Y: 0 Z: 0
RANK: 0Before Vorticity :  X: 18 Y: 0 Z: 0
RANK: 0Before Norm:  X: 18 Y: 0 Z: 0
RANK: 0Before Velocity TUPLE:  X: 18 Y: 0 Z: 0
RANK: 0Before Vorticity TUPLE:  X: 18 Y: 0 Z: 0
RANK: 0Before Norm TUPLE:  X: 18 Y: 0 Z: 0
RANK: 0Before Velocity:  X: 19 Y: 0 Z: 0
RANK: 0Before Vorticity :  X: 19 Y: 0 Z: 0
RANK: 0Before Norm:  X: 19 Y: 0 Z: 0
RANK: 0Before Velocity TUPLE:  X: 19 Y: 0 Z: 0
RANK: 0Before Vorticity TUPLE:  X: 19 Y: 0 Z: 0
RANK: 0Before Norm TUPLE:  X: 19 Y: 0 Z: 0
RANK: 0Before Velocity:  X: 20 Y: 0 Z: 0
RANK: 0Before Vorticity :  X: 20 Y: 0 Z: 0
RANK: 0Before Norm:  X: 20 Y: 0 Z: 0
RANK: 0Before Velocity TUPLE:  X: 20 Y: 0 Z: 0
RANK: 0Before Vorticity TUPLE:  X: 20 Y: 0 Z: 0
RANK: 0Before Norm TUPLE:  X: 20 Y: 0 Z: 0
RANK: 0Before Velocity:  X: 0 Y: 1 Z: 0
RANK: 0Before Vorticity :  X: 0 Y: 1 Z: 0
RANK: 0Before Norm:  X: 0 Y: 1 Z: 0
RANK: 0Before Velocity TUPLE:  X: 0 Y: 1 Z: 0
RANK: 0Before Vorticity TUPLE:  X: 0 Y: 1 Z: 0
RANK: 0Before Norm TUPLE:  X: 0 Y: 1 Z: 0
RANK: 0Before Velocity:  X: 1 Y: 1 Z: 0
RANK: 0Before Vorticity :  X: 1 Y: 1 Z: 0
RANK: 0Before Norm:  X: 1 Y: 1 Z: 0
RANK: 0Before Velocity TUPLE:  X: 1 Y: 1 Z: 0
RANK: 0Before Vorticity TUPLE:  X: 1 Y: 1 Z: 0
RANK: 0Before Norm TUPLE:  X: 1 Y: 1 Z: 0
RANK: 0Before Velocity:  X: 2 Y: 1 Z: 0
RANK: 0Before Vorticity :  X: 2 Y: 1 Z: 0
RANK: 0Before Norm:  X: 2 Y: 1 Z: 0
RANK: 0Before Velocity TUPLE:  X: 2 Y: 1 Z: 0
RANK: 0Before Vorticity TUPLE:  X: 2 Y: 1 Z: 0
RANK: 0Before Norm TUPLE:  X: 2 Y: 1 Z: 0
RANK: 0Before Velocity:  X: 3 Y: 1 Z: 0
RANK: 0Before Vorticity :  X: 3 Y: 1 Z: 0
RANK: 0Before Norm:  X: 3 Y: 1 Z: 0
RANK: 0Before Velocity TUPLE:  X: 3 Y: 1 Z: 0
RANK: 0Before Vorticity TUPLE:  X: 3 Y: 1 Z: 0
RANK: 0Before Norm TUPLE:  X: 3 Y: 1 Z: 0
RANK: 0Before Velocity:  X: 4 Y: 1 Z: 0
RANK: 0Before Vorticity :  X: 4 Y: 1 Z: 0
RANK: 0Before Norm:  X: 4 Y: 1 Z: 0
RANK: 0Before Velocity TUPLE:  X: 4 Y: 1 Z: 0
RANK: 0Before Vorticity TUPLE:  X: 4 Y: 1 Z: 0
RANK: 0Before Norm TUPLE:  X: 4 Y: 1 Z: 0
RANK: 0Before Velocity:  X: 5 Y: 1 Z: 0
RANK: 0Before Vorticity :  X: 5 Y: 1 Z: 0
RANK: 0Before Norm:  X: 5 Y: 1 Z: 0
RANK: 0Before Velocity TUPLE:  X: 5 Y: 1 Z: 0
RANK: 0Before Vorticity TUPLE:  X: 5 Y: 1 Z: 0
RANK: 0Before Norm TUPLE:  X: 5 Y: 1 Z: 0
RANK: 0Before Velocity:  X: 6 Y: 1 Z: 0
RANK: 0Before Vorticity :  X: 6 Y: 1 Z: 0
RANK: 0Before Norm:  X: 6 Y: 1 Z: 0
RANK: 0Before Velocity TUPLE:  X: 6 Y: 1 Z: 0
RANK: 0Before Vorticity TUPLE:  X: 6 Y: 1 Z: 0
RANK: 0Before Norm TUPLE:  X: 6 Y: 1 Z: 0
RANK: 0Before Velocity:  X: 7 Y: 1 Z: 0
RANK: 0Before Vorticity :  X: 7 Y: 1 Z: 0
RANK: 0Before Norm:  X: 7 Y: 1 Z: 0
RANK: 0Before Velocity TUPLE:  X: 7 Y: 1 Z: 0
RANK: 0Before Vorticity TUPLE:  X: 7 Y: 1 Z: 0
RANK: 0Before Norm TUPLE:  X: 7 Y: 1 Z: 0
RANK: 0Before Velocity:  X: 8 Y: 1 Z: 0
RANK: 0Before Vorticity :  X: 8 Y: 1 Z: 0
RANK: 0Before Norm:  X: 8 Y: 1 Z: 0
RANK: 0Before Velocity TUPLE:  X: 8 Y: 1 Z: 0
RANK: 0Before Vorticity TUPLE:  X: 8 Y: 1 Z: 0
RANK: 0Before Norm TUPLE:  X: 8 Y: 1 Z: 0
RANK: 0Before Velocity:  X: 9 Y: 1 Z: 0
RANK: 0Before Vorticity :  X: 9 Y: 1 Z: 0
RANK: 0Before Norm:  X: 9 Y: 1 Z: 0
RANK: 0Before Velocity TUPLE:  X: 9 Y: 1 Z: 0
RANK: 0Before Vorticity TUPLE:  X: 9 Y: 1 Z: 0
RANK: 0Before Norm TUPLE:  X: 9 Y: 1 Z: 0
RANK: 0Before Velocity:  X: 10 Y: 1 Z: 0
RANK: 0Before Vorticity :  X: 10 Y: 1 Z: 0
RANK: 0Before Norm:  X: 10 Y: 1 Z: 0
RANK: 0Before Velocity TUPLE:  X: 10 Y: 1 Z: 0
RANK: 0Before Vorticity TUPLE:  X: 10 Y: 1 Z: 0
RANK: 0Before Norm TUPLE:  X: 10 Y: 1 Z: 0
RANK: 0Before Velocity:  X: 11 Y: 1 Z: 0
RANK: 0Before Vorticity :  X: 11 Y: 1 Z: 0
RANK: 0Before Norm:  X: 11 Y: 1 Z: 0
RANK: 0Before Velocity TUPLE:  X: 11 Y: 1 Z: 0
RANK: 0Before Vorticity TUPLE:  X: 11 Y: 1 Z: 0
RANK: 0Before Norm TUPLE:  X: 11 Y: 1 Z: 0
RANK: 0Before Velocity:  X: 12 Y: 1 Z: 0
RANK: 0Before Vorticity :  X: 12 Y: 1 Z: 0
RANK: 0Before Norm:  X: 12 Y: 1 Z: 0
RANK: 0Before Velocity TUPLE:  X: 12 Y: 1 Z: 0
RANK: 0Before Vorticity TUPLE:  X: 12 Y: 1 Z: 0
RANK: 0Before Norm TUPLE:  X: 12 Y: 1 Z: 0
RANK: 0Before Velocity:  X: 13 Y: 1 Z: 0
RANK: 0Before Vorticity :  X: 13 Y: 1 Z: 0
RANK: 0Before Norm:  X: 13 Y: 1 Z: 0
RANK: 0Before Velocity TUPLE:  X: 13 Y: 1 Z: 0
RANK: 0Before Vorticity TUPLE:  X: 13 Y: 1 Z: 0
RANK: 0Before Norm TUPLE:  X: 13 Y: 1 Z: 0
RANK: 0Before Velocity:  X: 14 Y: 1 Z: 0
RANK: 0Before Vorticity :  X: 14 Y: 1 Z: 0
RANK: 0Before Norm:  X: 14 Y: 1 Z: 0
RANK: 0Before Velocity TUPLE:  X: 14 Y: 1 Z: 0
RANK: 0Before Vorticity TUPLE:  X: 14 Y: 1 Z: 0
RANK: 0Before Norm TUPLE:  X: 14 Y: 1 Z: 0
RANK: 0Before Velocity:  X: 15 Y: 1 Z: 0
RANK: 0Before Vorticity :  X: 15 Y: 1 Z: 0
RANK: 0Before Norm:  X: 15 Y: 1 Z: 0
RANK: 0Before Velocity TUPLE:  X: 15 Y: 1 Z: 0
RANK: 0Before Vorticity TUPLE:  X: 15 Y: 1 Z: 0
RANK: 0Before Norm TUPLE:  X: 15 Y: 1 Z: 0
RANK: 0Before Velocity:  X: 16 Y: 1 Z: 0
RANK: 0Before Vorticity :  X: 16 Y: 1 Z: 0
RANK: 0Before Norm:  X: 16 Y: 1 Z: 0
RANK: 0Before Velocity TUPLE:  X: 16 Y: 1 Z: 0
RANK: 0Before Vorticity TUPLE:  X: 16 Y: 1 Z: 0
RANK: 0Before Norm TUPLE:  X: 16 Y: 1 Z: 0
RANK: 0Before Velocity:  X: 17 Y: 1 Z: 0
RANK: 0Before Vorticity :  X: 17 Y: 1 Z: 0
RANK: 0Before Norm:  X: 17 Y: 1 Z: 0
RANK: 0Before Velocity TUPLE:  X: 17 Y: 1 Z: 0
RANK: 0Before Vorticity TUPLE:  X: 17 Y: 1 Z: 0
RANK: 0Before Norm TUPLE:  X: 17 Y: 1 Z: 0
RANK: 0Before Velocity:  X: 18 Y: 1 Z: 0
RANK: 0Before Vorticity :  X: 18 Y: 1 Z: 0
RANK: 0Before Norm:  X: 18 Y: 1 Z: 0
RANK: 0Before Velocity TUPLE:  X: 18 Y: 1 Z: 0
RANK: 0Before Vorticity TUPLE:  X: 18 Y: 1 Z: 0
RANK: 0Before Norm TUPLE:  X: 18 Y: 1 Z: 0
RANK: 0Before Velocity:  X: 19 Y: 1 Z: 0
RANK: 0Before Vorticity :  X: 19 Y: 1 Z: 0
RANK: 0Before Norm:  X: 19 Y: 1 Z: 0
RANK: 0Before Velocity TUPLE:  X: 19 Y: 1 Z: 0
RANK: 0Before Vorticity TUPLE:  X: 19 Y: 1 Z: 0
RANK: 0Before Norm TUPLE:  X: 19 Y: 1 Z: 0
RANK: 0Before Velocity:  X: 20 Y: 1 Z: 0
RANK: 0Before Vorticity :  X: 20 Y: 1 Z: 0
RANK: 0Before Norm:  X: 20 Y: 1 Z: 0
RANK: 0Before Velocity TUPLE:  X: 20 Y: 1 Z: 0
RANK: 0Before Vorticity TUPLE:  X: 20 Y: 1 Z: 0
RANK: 0Before Norm TUPLE:  X: 20 Y: 1 Z: 0
RANK: 0Before Velocity:  X: 0 Y: 2 Z: 0
RANK: 0Before Vorticity :  X: 0 Y: 2 Z: 0
RANK: 0Before Norm:  X: 0 Y: 2 Z: 0
RANK: 0Before Velocity TUPLE:  X: 0 Y: 2 Z: 0
RANK: 0Before Vorticity TUPLE:  X: 0 Y: 2 Z: 0
RANK: 0Before Norm TUPLE:  X: 0 Y: 2 Z: 0
RANK: 0Before Velocity:  X: 1 Y: 2 Z: 0
RANK: 0Before Vorticity :  X: 1 Y: 2 Z: 0
RANK: 0Before Norm:  X: 1 Y: 2 Z: 0
RANK: 0Before Velocity TUPLE:  X: 1 Y: 2 Z: 0
RANK: 0Before Vorticity TUPLE:  X: 1 Y: 2 Z: 0
RANK: 0Before Norm TUPLE:  X: 1 Y: 2 Z: 0
RANK: 0Before Velocity:  X: 2 Y: 2 Z: 0
RANK: 0Before Vorticity :  X: 2 Y: 2 Z: 0
RANK: 0Before Norm:  X: 2 Y: 2 Z: 0
RANK: 0Before Velocity TUPLE:  X: 2 Y: 2 Z: 0
RANK: 0Before Vorticity TUPLE:  X: 2 Y: 2 Z: 0
RANK: 0Before Norm TUPLE:  X: 2 Y: 2 Z: 0
RANK: 0Before Velocity:  X: 3 Y: 2 Z: 0
RANK: 0Before Vorticity :  X: 3 Y: 2 Z: 0
RANK: 0Before Norm:  X: 3 Y: 2 Z: 0
RANK: 0Before Velocity TUPLE:  X: 3 Y: 2 Z: 0
RANK: 0Before Vorticity TUPLE:  X: 3 Y: 2 Z: 0
RANK: 0Before Norm TUPLE:  X: 3 Y: 2 Z: 0
RANK: 0Before Velocity:  X: 4 Y: 2 Z: 0
RANK: 0Before Vorticity :  X: 4 Y: 2 Z: 0
RANK: 0Before Norm:  X: 4 Y: 2 Z: 0
RANK: 0Before Velocity TUPLE:  X: 4 Y: 2 Z: 0
RANK: 0Before Vorticity TUPLE:  X: 4 Y: 2 Z: 0
RANK: 0Before Norm TUPLE:  X: 4 Y: 2 Z: 0
RANK: 0Before Velocity:  X: 5 Y: 2 Z: 0
RANK: 0Before Vorticity :  X: 5 Y: 2 Z: 0
RANK: 0Before Norm:  X: 5 Y: 2 Z: 0
RANK: 0Before Velocity TUPLE:  X: 5 Y: 2 Z: 0
RANK: 0Before Vorticity TUPLE:  X: 5 Y: 2 Z: 0
RANK: 0Before Norm TUPLE:  X: 5 Y: 2 Z: 0
RANK: 0Before Velocity:  X: 6 Y: 2 Z: 0
RANK: 0Before Vorticity :  X: 6 Y: 2 Z: 0
RANK: 0Before Norm:  X: 6 Y: 2 Z: 0
RANK: 0Before Velocity TUPLE:  X: 6 Y: 2 Z: 0
RANK: 0Before Vorticity TUPLE:  X: 6 Y: 2 Z: 0
RANK: 0Before Norm TUPLE:  X: 6 Y: 2 Z: 0
RANK: 0Before Velocity:  X: 7 Y: 2 Z: 0
RANK: 0Before Vorticity :  X: 7 Y: 2 Z: 0
RANK: 0Before Norm:  X: 7 Y: 2 Z: 0
RANK: 0Before Velocity TUPLE:  X: 7 Y: 2 Z: 0
RANK: 0Before Vorticity TUPLE:  X: 7 Y: 2 Z: 0
RANK: 0Before Norm TUPLE:  X: 7 Y: 2 Z: 0
RANK: 0Before Velocity:  X: 8 Y: 2 Z: 0
RANK: 0Before Vorticity :  X: 8 Y: 2 Z: 0
RANK: 0Before Norm:  X: 8 Y: 2 Z: 0
RANK: 0Before Velocity TUPLE:  X: 8 Y: 2 Z: 0
RANK: 0Before Vorticity TUPLE:  X: 8 Y: 2 Z: 0
RANK: 0Before Norm TUPLE:  X: 8 Y: 2 Z: 0
RANK: 0Before Velocity:  X: 9 Y: 2 Z: 0
RANK: 0Before Vorticity :  X: 9 Y: 2 Z: 0
RANK: 0Before Norm:  X: 9 Y: 2 Z: 0
RANK: 0Before Velocity TUPLE:  X: 9 Y: 2 Z: 0
RANK: 0Before Vorticity TUPLE:  X: 9 Y: 2 Z: 0
RANK: 0Before Norm TUPLE:  X: 9 Y: 2 Z: 0
RANK: 0Before Velocity:  X: 10 Y: 2 Z: 0
RANK: 0Before Vorticity :  X: 10 Y: 2 Z: 0
RANK: 0Before Norm:  X: 10 Y: 2 Z: 0
RANK: 0Before Velocity TUPLE:  X: 10 Y: 2 Z: 0
RANK: 0Before Vorticity TUPLE:  X: 10 Y: 2 Z: 0
RANK: 0Before Norm TUPLE:  X: 10 Y: 2 Z: 0
RANK: 0Before Velocity:  X: 11 Y: 2 Z: 0
RANK: 0Before Vorticity :  X: 11 Y: 2 Z: 0
RANK: 0Before Norm:  X: 11 Y: 2 Z: 0
RANK: 0Before Velocity TUPLE:  X: 11 Y: 2 Z: 0
RANK: 0Before Vorticity TUPLE:  X: 11 Y: 2 Z: 0
RANK: 0Before Norm TUPLE:  X: 11 Y: 2 Z: 0
RANK: 0Before Velocity:  X: 12 Y: 2 Z: 0
RANK: 0Before Vorticity :  X: 12 Y: 2 Z: 0
RANK: 0Before Norm:  X: 12 Y: 2 Z: 0
RANK: 0Before Velocity TUPLE:  X: 12 Y: 2 Z: 0
RANK: 0Before Vorticity TUPLE:  X: 12 Y: 2 Z: 0
RANK: 0Before Norm TUPLE:  X: 12 Y: 2 Z: 0
RANK: 0Before Velocity:  X: 13 Y: 2 Z: 0
RANK: 0Before Vorticity :  X: 13 Y: 2 Z: 0
RANK: 0Before Norm:  X: 13 Y: 2 Z: 0
RANK: 0Before Velocity TUPLE:  X: 13 Y: 2 Z: 0
RANK: 0Before Vorticity TUPLE:  X: 13 Y: 2 Z: 0
RANK: 0Before Norm TUPLE:  X: 13 Y: 2 Z: 0
RANK: 0Before Velocity:  X: 14 Y: 2 Z: 0
RANK: 0Before Vorticity :  X: 14 Y: 2 Z: 0
RANK: 0Before Norm:  X: 14 Y: 2 Z: 0
RANK: 0Before Velocity TUPLE:  X: 14 Y: 2 Z: 0
RANK: 0Before Vorticity TUPLE:  X: 14 Y: 2 Z: 0
RANK: 0Before Norm TUPLE:  X: 14 Y: 2 Z: 0
RANK: 0Before Velocity:  X: 15 Y: 2 Z: 0
RANK: 0Before Vorticity :  X: 15 Y: 2 Z: 0
RANK: 0Before Norm:  X: 15 Y: 2 Z: 0
RANK: 0Before Velocity TUPLE:  X: 15 Y: 2 Z: 0
RANK: 0Before Vorticity TUPLE:  X: 15 Y: 2 Z: 0
RANK: 0Before Norm TUPLE:  X: 15 Y: 2 Z: 0
RANK: 0Before Velocity:  X: 16 Y: 2 Z: 0
RANK: 0Before Vorticity :  X: 16 Y: 2 Z: 0
RANK: 0Before Norm:  X: 16 Y: 2 Z: 0
RANK: 0Before Velocity TUPLE:  X: 16 Y: 2 Z: 0
RANK: 0Before Vorticity TUPLE:  X: 16 Y: 2 Z: 0
RANK: 0Before Norm TUPLE:  X: 16 Y: 2 Z: 0
RANK: 0Before Velocity:  X: 17 Y: 2 Z: 0
RANK: 0Before Vorticity :  X: 17 Y: 2 Z: 0
RANK: 0Before Norm:  X: 17 Y: 2 Z: 0
RANK: 0Before Velocity TUPLE:  X: 17 Y: 2 Z: 0
RANK: 0Before Vorticity TUPLE:  X: 17 Y: 2 Z: 0
RANK: 0Before Norm TUPLE:  X: 17 Y: 2 Z: 0
RANK: 0Before Velocity:  X: 18 Y: 2 Z: 0
RANK: 0Before Vorticity :  X: 18 Y: 2 Z: 0
RANK: 0Before Norm:  X: 18 Y: 2 Z: 0
RANK: 0Before Velocity TUPLE:  X: 18 Y: 2 Z: 0
RANK: 0Before Vorticity TUPLE:  X: 18 Y: 2 Z: 0
RANK: 0Before Norm TUPLE:  X: 18 Y: 2 Z: 0
RANK: 0Before Velocity:  X: 19 Y: 2 Z: 0
RANK: 0Before Vorticity :  X: 19 Y: 2 Z: 0
RANK: 0Before Norm:  X: 19 Y: 2 Z: 0
RANK: 0Before Velocity TUPLE:  X: 19 Y: 2 Z: 0
RANK: 0Before Vorticity TUPLE:  X: 19 Y: 2 Z: 0
RANK: 0Before Norm TUPLE:  X: 19 Y: 2 Z: 0
RANK: 0Before Velocity:  X: 20 Y: 2 Z: 0
RANK: 0Before Vorticity :  X: 20 Y: 2 Z: 0
RANK: 0Before Norm:  X: 20 Y: 2 Z: 0
RANK: 0Before Velocity TUPLE:  X: 20 Y: 2 Z: 0
RANK: 0Before Vorticity TUPLE:  X: 20 Y: 2 Z: 0
RANK: 0Before Norm TUPLE:  X: 20 Y: 2 Z: 0
RANK: 0Before Velocity:  X: 0 Y: 3 Z: 0
RANK: 0Before Vorticity :  X: 0 Y: 3 Z: 0
RANK: 0Before Norm:  X: 0 Y: 3 Z: 0
RANK: 0Before Velocity TUPLE:  X: 0 Y: 3 Z: 0
RANK: 0Before Vorticity TUPLE:  X: 0 Y: 3 Z: 0
RANK: 0Before Norm TUPLE:  X: 0 Y: 3 Z: 0
RANK: 0Before Velocity:  X: 1 Y: 3 Z: 0
RANK: 0Before Vorticity :  X: 1 Y: 3 Z: 0
RANK: 0Before Norm:  X: 1 Y: 3 Z: 0
RANK: 0Before Velocity TUPLE:  X: 1 Y: 3 Z: 0
RANK: 0Before Vorticity TUPLE:  X: 1 Y: 3 Z: 0
RANK: 0Before Norm TUPLE:  X: 1 Y: 3 Z: 0
RANK: 0Before Velocity:  X: 2 Y: 3 Z: 0
RANK: 0Before Vorticity :  X: 2 Y: 3 Z: 0
RANK: 0Before Norm:  X: 2 Y: 3 Z: 0
RANK: 0Before Velocity TUPLE:  X: 2 Y: 3 Z: 0
RANK: 0Before Vorticity TUPLE:  X: 2 Y: 3 Z: 0
RANK: 0Before Norm TUPLE:  X: 2 Y: 3 Z: 0
RANK: 0Before Velocity:  X: 3 Y: 3 Z: 0
RANK: 0Before Vorticity :  X: 3 Y: 3 Z: 0
RANK: 0Before Norm:  X: 3 Y: 3 Z: 0
RANK: 0Before Velocity TUPLE:  X: 3 Y: 3 Z: 0
RANK: 0Before Vorticity TUPLE:  X: 3 Y: 3 Z: 0
RANK: 0Before Norm TUPLE:  X: 3 Y: 3 Z: 0
RANK: 0Before Velocity:  X: 4 Y: 3 Z: 0
RANK: 0Before Vorticity :  X: 4 Y: 3 Z: 0
RANK: 0Before Norm:  X: 4 Y: 3 Z: 0
RANK: 0Before Velocity TUPLE:  X: 4 Y: 3 Z: 0
RANK: 0Before Vorticity TUPLE:  X: 4 Y: 3 Z: 0
RANK: 0Before Norm TUPLE:  X: 4 Y: 3 Z: 0
RANK: 0Before Velocity:  X: 5 Y: 3 Z: 0
RANK: 0Before Vorticity :  X: 5 Y: 3 Z: 0
RANK: 0Before Norm:  X: 5 Y: 3 Z: 0
RANK: 0Before Velocity TUPLE:  X: 5 Y: 3 Z: 0
RANK: 0Before Vorticity TUPLE:  X: 5 Y: 3 Z: 0
RANK: 0Before Norm TUPLE:  X: 5 Y: 3 Z: 0
RANK: 0Before Velocity:  X: 6 Y: 3 Z: 0
RANK: 0Before Vorticity :  X: 6 Y: 3 Z: 0
RANK: 0Before Norm:  X: 6 Y: 3 Z: 0
RANK: 0Before Velocity TUPLE:  X: 6 Y: 3 Z: 0
RANK: 0Before Vorticity TUPLE:  X: 6 Y: 3 Z: 0
RANK: 0Before Norm TUPLE:  X: 6 Y: 3 Z: 0
RANK: 0Before Velocity:  X: 7 Y: 3 Z: 0
RANK: 0Before Vorticity :  X: 7 Y: 3 Z: 0
RANK: 0Before Norm:  X: 7 Y: 3 Z: 0
RANK: 0Before Velocity TUPLE:  X: 7 Y: 3 Z: 0
RANK: 0Before Vorticity TUPLE:  X: 7 Y: 3 Z: 0
RANK: 0Before Norm TUPLE:  X: 7 Y: 3 Z: 0
RANK: 0Before Velocity:  X: 8 Y: 3 Z: 0
RANK: 0Before Vorticity :  X: 8 Y: 3 Z: 0
RANK: 0Before Norm:  X: 8 Y: 3 Z: 0
RANK: 0Before Velocity TUPLE:  X: 8 Y: 3 Z: 0
RANK: 0Before Vorticity TUPLE:  X: 8 Y: 3 Z: 0
RANK: 0Before Norm TUPLE:  X: 8 Y: 3 Z: 0
RANK: 0Before Velocity:  X: 9 Y: 3 Z: 0
RANK: 0Before Vorticity :  X: 9 Y: 3 Z: 0
RANK: 0Before Norm:  X: 9 Y: 3 Z: 0
RANK: 0Before Velocity TUPLE:  X: 9 Y: 3 Z: 0
RANK: 0Before Vorticity TUPLE:  X: 9 Y: 3 Z: 0
RANK: 0Before Norm TUPLE:  X: 9 Y: 3 Z: 0
RANK: 0Before Velocity:  X: 10 Y: 3 Z: 0
RANK: 0Before Vorticity :  X: 10 Y: 3 Z: 0
RANK: 0Before Norm:  X: 10 Y: 3 Z: 0
RANK: 0Before Velocity TUPLE:  X: 10 Y: 3 Z: 0
RANK: 0Before Vorticity TUPLE:  X: 10 Y: 3 Z: 0
RANK: 0Before Norm TUPLE:  X: 10 Y: 3 Z: 0
RANK: 0Before Velocity:  X: 11 Y: 3 Z: 0
RANK: 0Before Vorticity :  X: 11 Y: 3 Z: 0
RANK: 0Before Norm:  X: 11 Y: 3 Z: 0
RANK: 0Before Velocity TUPLE:  X: 11 Y: 3 Z: 0
RANK: 0Before Vorticity TUPLE:  X: 11 Y: 3 Z: 0
RANK: 0Before Norm TUPLE:  X: 11 Y: 3 Z: 0
RANK: 0Before Velocity:  X: 12 Y: 3 Z: 0
RANK: 0Before Vorticity :  X: 12 Y: 3 Z: 0
RANK: 0Before Norm:  X: 12 Y: 3 Z: 0
RANK: 0Before Velocity TUPLE:  X: 12 Y: 3 Z: 0
RANK: 0Before Vorticity TUPLE:  X: 12 Y: 3 Z: 0
RANK: 0Before Norm TUPLE:  X: 12 Y: 3 Z: 0
RANK: 0Before Velocity:  X: 13 Y: 3 Z: 0
RANK: 0Before Vorticity :  X: 13 Y: 3 Z: 0
RANK: 0Before Norm:  X: 13 Y: 3 Z: 0
RANK: 0Before Velocity TUPLE:  X: 13 Y: 3 Z: 0
RANK: 0Before Vorticity TUPLE:  X: 13 Y: 3 Z: 0
RANK: 0Before Norm TUPLE:  X: 13 Y: 3 Z: 0
RANK: 0Before Velocity:  X: 14 Y: 3 Z: 0
RANK: 0Before Vorticity :  X: 14 Y: 3 Z: 0
RANK: 0Before Norm:  X: 14 Y: 3 Z: 0
RANK: 0Before Velocity TUPLE:  X: 14 Y: 3 Z: 0
RANK: 0Before Vorticity TUPLE:  X: 14 Y: 3 Z: 0
RANK: 0Before Norm TUPLE:  X: 14 Y: 3 Z: 0
RANK: 0Before Velocity:  X: 15 Y: 3 Z: 0
RANK: 0Before Vorticity :  X: 15 Y: 3 Z: 0
RANK: 0Before Norm:  X: 15 Y: 3 Z: 0
RANK: 0Before Velocity TUPLE:  X: 15 Y: 3 Z: 0
RANK: 0Before Vorticity TUPLE:  X: 15 Y: 3 Z: 0
RANK: 0Before Norm TUPLE:  X: 15 Y: 3 Z: 0
RANK: 0Before Velocity:  X: 16 Y: 3 Z: 0
RANK: 0Before Vorticity :  X: 16 Y: 3 Z: 0
RANK: 0Before Norm:  X: 16 Y: 3 Z: 0
RANK: 0Before Velocity TUPLE:  X: 16 Y: 3 Z: 0
RANK: 0Before Vorticity TUPLE:  X: 16 Y: 3 Z: 0
RANK: 0Before Norm TUPLE:  X: 16 Y: 3 Z: 0
RANK: 0Before Velocity:  X: 17 Y: 3 Z: 0
RANK: 0Before Vorticity :  X: 17 Y: 3 Z: 0
RANK: 0Before Norm:  X: 17 Y: 3 Z: 0
RANK: 0Before Velocity TUPLE:  X: 17 Y: 3 Z: 0
RANK: 0Before Vorticity TUPLE:  X: 17 Y: 3 Z: 0
RANK: 0Before Norm TUPLE:  X: 17 Y: 3 Z: 0
RANK: 0Before Velocity:  X: 18 Y: 3 Z: 0
RANK: 0Before Vorticity :  X: 18 Y: 3 Z: 0
RANK: 0Before Norm:  X: 18 Y: 3 Z: 0
RANK: 0Before Velocity TUPLE:  X: 18 Y: 3 Z: 0
RANK: 0Before Vorticity TUPLE:  X: 18 Y: 3 Z: 0
RANK: 0Before Norm TUPLE:  X: 18 Y: 3 Z: 0
RANK: 0Before Velocity:  X: 19 Y: 3 Z: 0
RANK: 0Before Vorticity :  X: 19 Y: 3 Z: 0
RANK: 0Before Norm:  X: 19 Y: 3 Z: 0
RANK: 0Before Velocity TUPLE:  X: 19 Y: 3 Z: 0
RANK: 0Before Vorticity TUPLE:  X: 19 Y: 3 Z: 0
RANK: 0Before Norm TUPLE:  X: 19 Y: 3 Z: 0
RANK: 0Before Velocity:  X: 20 Y: 3 Z: 0
RANK: 0Before Vorticity :  X: 20 Y: 3 Z: 0
RANK: 0Before Norm:  X: 20 Y: 3 Z: 0
RANK: 0Before Velocity TUPLE:  X: 20 Y: 3 Z: 0
RANK: 0Before Vorticity TUPLE:  X: 20 Y: 3 Z: 0
RANK: 0Before Norm TUPLE:  X: 20 Y: 3 Z: 0
RANK: 0Before Velocity:  X: 0 Y: 4 Z: 0
RANK: 0Before Vorticity :  X: 0 Y: 4 Z: 0
RANK: 0Before Norm:  X: 0 Y: 4 Z: 0
RANK: 0Before Velocity TUPLE:  X: 0 Y: 4 Z: 0
RANK: 0Before Vorticity TUPLE:  X: 0 Y: 4 Z: 0
RANK: 0Before Norm TUPLE:  X: 0 Y: 4 Z: 0
RANK: 0Before Velocity:  X: 1 Y: 4 Z: 0
RANK: 0Before Vorticity :  X: 1 Y: 4 Z: 0
RANK: 0Before Norm:  X: 1 Y: 4 Z: 0
RANK: 0Before Velocity TUPLE:  X: 1 Y: 4 Z: 0
RANK: 0Before Vorticity TUPLE:  X: 1 Y: 4 Z: 0
RANK: 0Before Norm TUPLE:  X: 1 Y: 4 Z: 0
RANK: 0Before Velocity:  X: 2 Y: 4 Z: 0
RANK: 0Before Vorticity :  X: 2 Y: 4 Z: 0
RANK: 0Before Norm:  X: 2 Y: 4 Z: 0
RANK: 0Before Velocity TUPLE:  X: 2 Y: 4 Z: 0
RANK: 0Before Vorticity TUPLE:  X: 2 Y: 4 Z: 0
RANK: 0Before Norm TUPLE:  X: 2 Y: 4 Z: 0
RANK: 0Before Velocity:  X: 3 Y: 4 Z: 0
RANK: 0Before Vorticity :  X: 3 Y: 4 Z: 0
RANK: 0Before Norm:  X: 3 Y: 4 Z: 0
RANK: 0Before Velocity TUPLE:  X: 3 Y: 4 Z: 0
RANK: 0Before Vorticity TUPLE:  X: 3 Y: 4 Z: 0
RANK: 0Before Norm TUPLE:  X: 3 Y: 4 Z: 0
RANK: 0Before Velocity:  X: 4 Y: 4 Z: 0
RANK: 0Before Vorticity :  X: 4 Y: 4 Z: 0
RANK: 0Before Norm:  X: 4 Y: 4 Z: 0
RANK: 0Before Velocity TUPLE:  X: 4 Y: 4 Z: 0
RANK: 0Before Vorticity TUPLE:  X: 4 Y: 4 Z: 0
RANK: 0Before Norm TUPLE:  X: 4 Y: 4 Z: 0
RANK: 0Before Velocity:  X: 5 Y: 4 Z: 0
RANK: 0Before Vorticity :  X: 5 Y: 4 Z: 0
RANK: 0Before Norm:  X: 5 Y: 4 Z: 0
RANK: 0Before Velocity TUPLE:  X: 5 Y: 4 Z: 0
RANK: 0Before Vorticity TUPLE:  X: 5 Y: 4 Z: 0
RANK: 0Before Norm TUPLE:  X: 5 Y: 4 Z: 0
RANK: 0Before Velocity:  X: 6 Y: 4 Z: 0
RANK: 0Before Vorticity :  X: 6 Y: 4 Z: 0
RANK: 0Before Norm:  X: 6 Y: 4 Z: 0
RANK: 0Before Velocity TUPLE:  X: 6 Y: 4 Z: 0
RANK: 0Before Vorticity TUPLE:  X: 6 Y: 4 Z: 0
RANK: 0Before Norm TUPLE:  X: 6 Y: 4 Z: 0
RANK: 0Before Velocity:  X: 7 Y: 4 Z: 0
RANK: 0Before Vorticity :  X: 7 Y: 4 Z: 0
RANK: 0Before Norm:  X: 7 Y: 4 Z: 0
RANK: 0Before Velocity TUPLE:  X: 7 Y: 4 Z: 0
RANK: 0Before Vorticity TUPLE:  X: 7 Y: 4 Z: 0
RANK: 0Before Norm TUPLE:  X: 7 Y: 4 Z: 0
RANK: 0Before Velocity:  X: 8 Y: 4 Z: 0
RANK: 0Before Vorticity :  X: 8 Y: 4 Z: 0
RANK: 0Before Norm:  X: 8 Y: 4 Z: 0
RANK: 0Before Velocity TUPLE:  X: 8 Y: 4 Z: 0
RANK: 0Before Vorticity TUPLE:  X: 8 Y: 4 Z: 0
RANK: 0Before Norm TUPLE:  X: 8 Y: 4 Z: 0
RANK: 0Before Velocity:  X: 9 Y: 4 Z: 0
RANK: 0Before Vorticity :  X: 9 Y: 4 Z: 0
RANK: 0Before Norm:  X: 9 Y: 4 Z: 0
RANK: 0Before Velocity TUPLE:  X: 9 Y: 4 Z: 0
RANK: 0Before Vorticity TUPLE:  X: 9 Y: 4 Z: 0
RANK: 0Before Norm TUPLE:  X: 9 Y: 4 Z: 0
RANK: 0Before Velocity:  X: 10 Y: 4 Z: 0
RANK: 0Before Vorticity :  X: 10 Y: 4 Z: 0
RANK: 0Before Norm:  X: 10 Y: 4 Z: 0
RANK: 0Before Velocity TUPLE:  X: 10 Y: 4 Z: 0
RANK: 0Before Vorticity TUPLE:  X: 10 Y: 4 Z: 0
RANK: 0Before Norm TUPLE:  X: 10 Y: 4 Z: 0
RANK: 0Before Velocity:  X: 11 Y: 4 Z: 0
RANK: 0Before Vorticity :  X: 11 Y: 4 Z: 0
RANK: 0Before Norm:  X: 11 Y: 4 Z: 0
RANK: 0Before Velocity TUPLE:  X: 11 Y: 4 Z: 0
RANK: 0Before Vorticity TUPLE:  X: 11 Y: 4 Z: 0
RANK: 0Before Norm TUPLE:  X: 11 Y: 4 Z: 0
RANK: 0Before Velocity:  X: 12 Y: 4 Z: 0
RANK: 0Before Vorticity :  X: 12 Y: 4 Z: 0
RANK: 0Before Norm:  X: 12 Y: 4 Z: 0
RANK: 0Before Velocity TUPLE:  X: 12 Y: 4 Z: 0
RANK: 0Before Vorticity TUPLE:  X: 12 Y: 4 Z: 0
RANK: 0Before Norm TUPLE:  X: 12 Y: 4 Z: 0
RANK: 0Before Velocity:  X: 13 Y: 4 Z: 0
RANK: 0Before Vorticity :  X: 13 Y: 4 Z: 0
RANK: 0Before Norm:  X: 13 Y: 4 Z: 0
RANK: 0Before Velocity TUPLE:  X: 13 Y: 4 Z: 0
RANK: 0Before Vorticity TUPLE:  X: 13 Y: 4 Z: 0
RANK: 0Before Norm TUPLE:  X: 13 Y: 4 Z: 0
RANK: 0Before Velocity:  X: 14 Y: 4 Z: 0
RANK: 0Before Vorticity :  X: 14 Y: 4 Z: 0
RANK: 0Before Norm:  X: 14 Y: 4 Z: 0
RANK: 0Before Velocity TUPLE:  X: 14 Y: 4 Z: 0
RANK: 0Before Vorticity TUPLE:  X: 14 Y: 4 Z: 0
RANK: 0Before Norm TUPLE:  X: 14 Y: 4 Z: 0
RANK: 0Before Velocity:  X: 15 Y: 4 Z: 0
RANK: 0Before Vorticity :  X: 15 Y: 4 Z: 0
RANK: 0Before Norm:  X: 15 Y: 4 Z: 0
RANK: 0Before Velocity TUPLE:  X: 15 Y: 4 Z: 0
RANK: 0Before Vorticity TUPLE:  X: 15 Y: 4 Z: 0
RANK: 0Before Norm TUPLE:  X: 15 Y: 4 Z: 0
RANK: 0Before Velocity:  X: 16 Y: 4 Z: 0
RANK: 0Before Vorticity :  X: 16 Y: 4 Z: 0
RANK: 0Before Norm:  X: 16 Y: 4 Z: 0
RANK: 0Before Velocity TUPLE:  X: 16 Y: 4 Z: 0
RANK: 0Before Vorticity TUPLE:  X: 16 Y: 4 Z: 0
RANK: 0Before Norm TUPLE:  X: 16 Y: 4 Z: 0
RANK: 0Before Velocity:  X: 17 Y: 4 Z: 0
RANK: 0Before Vorticity :  X: 17 Y: 4 Z: 0
RANK: 0Before Norm:  X: 17 Y: 4 Z: 0
RANK: 0Before Velocity TUPLE:  X: 17 Y: 4 Z: 0
RANK: 0Before Vorticity TUPLE:  X: 17 Y: 4 Z: 0
RANK: 0Before Norm TUPLE:  X: 17 Y: 4 Z: 0
RANK: 0Before Velocity:  X: 18 Y: 4 Z: 0
RANK: 0Before Vorticity :  X: 18 Y: 4 Z: 0
RANK: 0Before Norm:  X: 18 Y: 4 Z: 0
RANK: 0Before Velocity TUPLE:  X: 18 Y: 4 Z: 0
RANK: 0Before Vorticity TUPLE:  X: 18 Y: 4 Z: 0
RANK: 0Before Norm TUPLE:  X: 18 Y: 4 Z: 0
RANK: 0Before Velocity:  X: 19 Y: 4 Z: 0
RANK: 0Before Vorticity :  X: 19 Y: 4 Z: 0
RANK: 0Before Norm:  X: 19 Y: 4 Z: 0
RANK: 0Before Velocity TUPLE:  X: 19 Y: 4 Z: 0
RANK: 0Before Vorticity TUPLE:  X: 19 Y: 4 Z: 0
RANK: 0Before Norm TUPLE:  X: 19 Y: 4 Z: 0
RANK: 0Before Velocity:  X: 20 Y: 4 Z: 0
RANK: 0Before Vorticity :  X: 20 Y: 4 Z: 0
RANK: 0Before Norm:  X: 20 Y: 4 Z: 0
RANK: 0Before Velocity TUPLE:  X: 20 Y: 4 Z: 0
RANK: 0Before Vorticity TUPLE:  X: 20 Y: 4 Z: 0
RANK: 0Before Norm TUPLE:  X: 20 Y: 4 Z: 0
RANK: 0Before Velocity:  X: 0 Y: 5 Z: 0
RANK: 0Before Vorticity :  X: 0 Y: 5 Z: 0
RANK: 0Before Norm:  X: 0 Y: 5 Z: 0
RANK: 0Before Velocity TUPLE:  X: 0 Y: 5 Z: 0
RANK: 0Before Vorticity TUPLE:  X: 0 Y: 5 Z: 0
RANK: 0Before Norm TUPLE:  X: 0 Y: 5 Z: 0
RANK: 0Before Velocity:  X: 1 Y: 5 Z: 0
RANK: 0Before Vorticity :  X: 1 Y: 5 Z: 0
RANK: 0Before Norm:  X: 1 Y: 5 Z: 0
RANK: 0Before Velocity TUPLE:  X: 1 Y: 5 Z: 0
RANK: 0Before Vorticity TUPLE:  X: 1 Y: 5 Z: 0
RANK: 0Before Norm TUPLE:  X: 1 Y: 5 Z: 0
RANK: 0Before Velocity:  X: 2 Y: 5 Z: 0
RANK: 0Before Vorticity :  X: 2 Y: 5 Z: 0
RANK: 0Before Norm:  X: 2 Y: 5 Z: 0
RANK: 0Before Velocity TUPLE:  X: 2 Y: 5 Z: 0
RANK: 0Before Vorticity TUPLE:  X: 2 Y: 5 Z: 0
RANK: 0Before Norm TUPLE:  X: 2 Y: 5 Z: 0
RANK: 0Before Velocity:  X: 3 Y: 5 Z: 0
RANK: 0Before Vorticity :  X: 3 Y: 5 Z: 0
RANK: 0Before Norm:  X: 3 Y: 5 Z: 0
RANK: 0Before Velocity TUPLE:  X: 3 Y: 5 Z: 0
RANK: 0Before Vorticity TUPLE:  X: 3 Y: 5 Z: 0
RANK: 0Before Norm TUPLE:  X: 3 Y: 5 Z: 0
RANK: 0Before Velocity:  X: 4 Y: 5 Z: 0
RANK: 0Before Vorticity :  X: 4 Y: 5 Z: 0
RANK: 0Before Norm:  X: 4 Y: 5 Z: 0
RANK: 0Before Velocity TUPLE:  X: 4 Y: 5 Z: 0
RANK: 0Before Vorticity TUPLE:  X: 4 Y: 5 Z: 0
RANK: 0Before Norm TUPLE:  X: 4 Y: 5 Z: 0
RANK: 0Before Velocity:  X: 5 Y: 5 Z: 0
RANK: 0Before Vorticity :  X: 5 Y: 5 Z: 0
RANK: 0Before Norm:  X: 5 Y: 5 Z: 0
RANK: 0Before Velocity TUPLE:  X: 5 Y: 5 Z: 0
RANK: 0Before Vorticity TUPLE:  X: 5 Y: 5 Z: 0
RANK: 0Before Norm TUPLE:  X: 5 Y: 5 Z: 0
RANK: 0Before Velocity:  X: 6 Y: 5 Z: 0
RANK: 0Before Vorticity :  X: 6 Y: 5 Z: 0
RANK: 0Before Norm:  X: 6 Y: 5 Z: 0
RANK: 0Before Velocity TUPLE:  X: 6 Y: 5 Z: 0
RANK: 0Before Vorticity TUPLE:  X: 6 Y: 5 Z: 0
RANK: 0Before Norm TUPLE:  X: 6 Y: 5 Z: 0
RANK: 0Before Velocity:  X: 7 Y: 5 Z: 0
RANK: 0Before Vorticity :  X: 7 Y: 5 Z: 0
RANK: 0Before Norm:  X: 7 Y: 5 Z: 0
RANK: 0Before Velocity TUPLE:  X: 7 Y: 5 Z: 0
RANK: 0Before Vorticity TUPLE:  X: 7 Y: 5 Z: 0
RANK: 0Before Norm TUPLE:  X: 7 Y: 5 Z: 0
RANK: 0Before Velocity:  X: 8 Y: 5 Z: 0
RANK: 0Before Vorticity :  X: 8 Y: 5 Z: 0
RANK: 0Before Norm:  X: 8 Y: 5 Z: 0
RANK: 0Before Velocity TUPLE:  X: 8 Y: 5 Z: 0
RANK: 0Before Vorticity TUPLE:  X: 8 Y: 5 Z: 0
RANK: 0Before Norm TUPLE:  X: 8 Y: 5 Z: 0
RANK: 0Before Velocity:  X: 9 Y: 5 Z: 0
RANK: 0Before Vorticity :  X: 9 Y: 5 Z: 0
RANK: 0Before Norm:  X: 9 Y: 5 Z: 0
RANK: 0Before Velocity TUPLE:  X: 9 Y: 5 Z: 0
RANK: 0Before Vorticity TUPLE:  X: 9 Y: 5 Z: 0
RANK: 0Before Norm TUPLE:  X: 9 Y: 5 Z: 0
RANK: 0Before Velocity:  X: 10 Y: 5 Z: 0
RANK: 0Before Vorticity :  X: 10 Y: 5 Z: 0
RANK: 0Before Norm:  X: 10 Y: 5 Z: 0
RANK: 0Before Velocity TUPLE:  X: 10 Y: 5 Z: 0
RANK: 0Before Vorticity TUPLE:  X: 10 Y: 5 Z: 0
RANK: 0Before Norm TUPLE:  X: 10 Y: 5 Z: 0
RANK: 0Before Velocity:  X: 11 Y: 5 Z: 0
RANK: 0Before Vorticity :  X: 11 Y: 5 Z: 0
RANK: 0Before Norm:  X: 11 Y: 5 Z: 0
RANK: 0Before Velocity TUPLE:  X: 11 Y: 5 Z: 0
RANK: 0Before Vorticity TUPLE:  X: 11 Y: 5 Z: 0
RANK: 0Before Norm TUPLE:  X: 11 Y: 5 Z: 0
RANK: 0Before Velocity:  X: 12 Y: 5 Z: 0
RANK: 0Before Vorticity :  X: 12 Y: 5 Z: 0
RANK: 0Before Norm:  X: 12 Y: 5 Z: 0
RANK: 0Before Velocity TUPLE:  X: 12 Y: 5 Z: 0
RANK: 0Before Vorticity TUPLE:  X: 12 Y: 5 Z: 0
RANK: 0Before Norm TUPLE:  X: 12 Y: 5 Z: 0
RANK: 0Before Velocity:  X: 13 Y: 5 Z: 0
RANK: 0Before Vorticity :  X: 13 Y: 5 Z: 0
RANK: 0Before Norm:  X: 13 Y: 5 Z: 0
RANK: 0Before Velocity TUPLE:  X: 13 Y: 5 Z: 0
RANK: 0Before Vorticity TUPLE:  X: 13 Y: 5 Z: 0
RANK: 0Before Norm TUPLE:  X: 13 Y: 5 Z: 0
RANK: 0Before Velocity:  X: 14 Y: 5 Z: 0
RANK: 0Before Vorticity :  X: 14 Y: 5 Z: 0
RANK: 0Before Norm:  X: 14 Y: 5 Z: 0
RANK: 0Before Velocity TUPLE:  X: 14 Y: 5 Z: 0
RANK: 0Before Vorticity TUPLE:  X: 14 Y: 5 Z: 0
RANK: 0Before Norm TUPLE:  X: 14 Y: 5 Z: 0
RANK: 0Before Velocity:  X: 15 Y: 5 Z: 0
RANK: 0Before Vorticity :  X: 15 Y: 5 Z: 0
RANK: 0Before Norm:  X: 15 Y: 5 Z: 0
RANK: 0Before Velocity TUPLE:  X: 15 Y: 5 Z: 0
RANK: 0Before Vorticity TUPLE:  X: 15 Y: 5 Z: 0
RANK: 0Before Norm TUPLE:  X: 15 Y: 5 Z: 0
RANK: 0Before Velocity:  X: 16 Y: 5 Z: 0
RANK: 0Before Vorticity :  X: 16 Y: 5 Z: 0
RANK: 0Before Norm:  X: 16 Y: 5 Z: 0
RANK: 0Before Velocity TUPLE:  X: 16 Y: 5 Z: 0
RANK: 0Before Vorticity TUPLE:  X: 16 Y: 5 Z: 0
RANK: 0Before Norm TUPLE:  X: 16 Y: 5 Z: 0
RANK: 0Before Velocity:  X: 17 Y: 5 Z: 0
RANK: 0Before Vorticity :  X: 17 Y: 5 Z: 0
RANK: 0Before Norm:  X: 17 Y: 5 Z: 0
RANK: 0Before Velocity TUPLE:  X: 17 Y: 5 Z: 0
RANK: 0Before Vorticity TUPLE:  X: 17 Y: 5 Z: 0
RANK: 0Before Norm TUPLE:  X: 17 Y: 5 Z: 0
RANK: 0Before Velocity:  X: 18 Y: 5 Z: 0
RANK: 0Before Vorticity :  X: 18 Y: 5 Z: 0
RANK: 0Before Norm:  X: 18 Y: 5 Z: 0
RANK: 0Before Velocity TUPLE:  X: 18 Y: 5 Z: 0
RANK: 0Before Vorticity TUPLE:  X: 18 Y: 5 Z: 0
RANK: 0Before Norm TUPLE:  X: 18 Y: 5 Z: 0
RANK: 0Before Velocity:  X: 19 Y: 5 Z: 0
RANK: 0Before Vorticity :  X: 19 Y: 5 Z: 0
RANK: 0Before Norm:  X: 19 Y: 5 Z: 0
RANK: 0Before Velocity TUPLE:  X: 19 Y: 5 Z: 0
RANK: 0Before Vorticity TUPLE:  X: 19 Y: 5 Z: 0
RANK: 0Before Norm TUPLE:  X: 19 Y: 5 Z: 0
RANK: 0Before Velocity:  X: 20 Y: 5 Z: 0
RANK: 0Before Vorticity :  X: 20 Y: 5 Z: 0
RANK: 0Before Norm:  X: 20 Y: 5 Z: 0
RANK: 0Before Velocity TUPLE:  X: 20 Y: 5 Z: 0
RANK: 0Before Vorticity TUPLE:  X: 20 Y: 5 Z: 0
RANK: 0Before Norm TUPLE:  X: 20 Y: 5 Z: 0
RANK: 0Before Velocity:  X: 0 Y: 6 Z: 0
RANK: 0Before Vorticity :  X: 0 Y: 6 Z: 0
RANK: 0Before Norm:  X: 0 Y: 6 Z: 0
RANK: 0Before Velocity TUPLE:  X: 0 Y: 6 Z: 0
RANK: 0Before Vorticity TUPLE:  X: 0 Y: 6 Z: 0
RANK: 0Before Norm TUPLE:  X: 0 Y: 6 Z: 0
RANK: 0Before Velocity:  X: 1 Y: 6 Z: 0
RANK: 0Before Vorticity :  X: 1 Y: 6 Z: 0
RANK: 0Before Norm:  X: 1 Y: 6 Z: 0
RANK: 0Before Velocity TUPLE:  X: 1 Y: 6 Z: 0
RANK: 0Before Vorticity TUPLE:  X: 1 Y: 6 Z: 0
RANK: 0Before Norm TUPLE:  X: 1 Y: 6 Z: 0
RANK: 0Before Velocity:  X: 2 Y: 6 Z: 0
RANK: 0Before Vorticity :  X: 2 Y: 6 Z: 0
RANK: 0Before Norm:  X: 2 Y: 6 Z: 0
RANK: 0Before Velocity TUPLE:  X: 2 Y: 6 Z: 0
RANK: 0Before Vorticity TUPLE:  X: 2 Y: 6 Z: 0
RANK: 0Before Norm TUPLE:  X: 2 Y: 6 Z: 0
RANK: 0Before Velocity:  X: 3 Y: 6 Z: 0
RANK: 0Before Vorticity :  X: 3 Y: 6 Z: 0
RANK: 0Before Norm:  X: 3 Y: 6 Z: 0
RANK: 0Before Velocity TUPLE:  X: 3 Y: 6 Z: 0
RANK: 0Before Vorticity TUPLE:  X: 3 Y: 6 Z: 0
RANK: 0Before Norm TUPLE:  X: 3 Y: 6 Z: 0
RANK: 0Before Velocity:  X: 4 Y: 6 Z: 0
RANK: 0Before Vorticity :  X: 4 Y: 6 Z: 0
RANK: 0Before Norm:  X: 4 Y: 6 Z: 0
RANK: 0Before Velocity TUPLE:  X: 4 Y: 6 Z: 0
RANK: 0Before Vorticity TUPLE:  X: 4 Y: 6 Z: 0
RANK: 0Before Norm TUPLE:  X: 4 Y: 6 Z: 0
RANK: 0Before Velocity:  X: 5 Y: 6 Z: 0
RANK: 0Before Vorticity :  X: 5 Y: 6 Z: 0
RANK: 0Before Norm:  X: 5 Y: 6 Z: 0
RANK: 0Before Velocity TUPLE:  X: 5 Y: 6 Z: 0
RANK: 0Before Vorticity TUPLE:  X: 5 Y: 6 Z: 0
RANK: 0Before Norm TUPLE:  X: 5 Y: 6 Z: 0
RANK: 0Before Velocity:  X: 6 Y: 6 Z: 0
RANK: 0Before Vorticity :  X: 6 Y: 6 Z: 0
RANK: 0Before Norm:  X: 6 Y: 6 Z: 0
RANK: 0Before Velocity TUPLE:  X: 6 Y: 6 Z: 0
RANK: 0Before Vorticity TUPLE:  X: 6 Y: 6 Z: 0
RANK: 0Before Norm TUPLE:  X: 6 Y: 6 Z: 0
RANK: 0Before Velocity:  X: 7 Y: 6 Z: 0
RANK: 0Before Vorticity :  X: 7 Y: 6 Z: 0
RANK: 0Before Norm:  X: 7 Y: 6 Z: 0
RANK: 0Before Velocity TUPLE:  X: 7 Y: 6 Z: 0
RANK: 0Before Vorticity TUPLE:  X: 7 Y: 6 Z: 0
RANK: 0Before Norm TUPLE:  X: 7 Y: 6 Z: 0
RANK: 0Before Velocity:  X: 8 Y: 6 Z: 0
RANK: 0Before Vorticity :  X: 8 Y: 6 Z: 0
RANK: 0Before Norm:  X: 8 Y: 6 Z: 0
RANK: 0Before Velocity TUPLE:  X: 8 Y: 6 Z: 0
RANK: 0Before Vorticity TUPLE:  X: 8 Y: 6 Z: 0
RANK: 0Before Norm TUPLE:  X: 8 Y: 6 Z: 0
RANK: 0Before Velocity:  X: 9 Y: 6 Z: 0
RANK: 0Before Vorticity :  X: 9 Y: 6 Z: 0
RANK: 0Before Norm:  X: 9 Y: 6 Z: 0
RANK: 0Before Velocity TUPLE:  X: 9 Y: 6 Z: 0
RANK: 0Before Vorticity TUPLE:  X: 9 Y: 6 Z: 0
RANK: 0Before Norm TUPLE:  X: 9 Y: 6 Z: 0
RANK: 0Before Velocity:  X: 10 Y: 6 Z: 0
RANK: 0Before Vorticity :  X: 10 Y: 6 Z: 0
RANK: 0Before Norm:  X: 10 Y: 6 Z: 0
RANK: 0Before Velocity TUPLE:  X: 10 Y: 6 Z: 0
RANK: 0Before Vorticity TUPLE:  X: 10 Y: 6 Z: 0
RANK: 0Before Norm TUPLE:  X: 10 Y: 6 Z: 0
RANK: 0Before Velocity:  X: 11 Y: 6 Z: 0
RANK: 0Before Vorticity :  X: 11 Y: 6 Z: 0
RANK: 0Before Norm:  X: 11 Y: 6 Z: 0
RANK: 0Before Velocity TUPLE:  X: 11 Y: 6 Z: 0
RANK: 0Before Vorticity TUPLE:  X: 11 Y: 6 Z: 0
RANK: 0Before Norm TUPLE:  X: 11 Y: 6 Z: 0
RANK: 0Before Velocity:  X: 12 Y: 6 Z: 0
RANK: 0Before Vorticity :  X: 12 Y: 6 Z: 0
RANK: 0Before Norm:  X: 12 Y: 6 Z: 0
RANK: 0Before Velocity TUPLE:  X: 12 Y: 6 Z: 0
RANK: 0Before Vorticity TUPLE:  X: 12 Y: 6 Z: 0
RANK: 0Before Norm TUPLE:  X: 12 Y: 6 Z: 0
RANK: 0Before Velocity:  X: 13 Y: 6 Z: 0
RANK: 0Before Vorticity :  X: 13 Y: 6 Z: 0
RANK: 0Before Norm:  X: 13 Y: 6 Z: 0
RANK: 0Before Velocity TUPLE:  X: 13 Y: 6 Z: 0
RANK: 0Before Vorticity TUPLE:  X: 13 Y: 6 Z: 0
RANK: 0Before Norm TUPLE:  X: 13 Y: 6 Z: 0
RANK: 0Before Velocity:  X: 14 Y: 6 Z: 0
RANK: 0Before Vorticity :  X: 14 Y: 6 Z: 0
RANK: 0Before Norm:  X: 14 Y: 6 Z: 0
RANK: 0Before Velocity TUPLE:  X: 14 Y: 6 Z: 0
RANK: 0Before Vorticity TUPLE:  X: 14 Y: 6 Z: 0
RANK: 0Before Norm TUPLE:  X: 14 Y: 6 Z: 0
RANK: 0Before Velocity:  X: 15 Y: 6 Z: 0
RANK: 0Before Vorticity :  X: 15 Y: 6 Z: 0
RANK: 0Before Norm:  X: 15 Y: 6 Z: 0
RANK: 0Before Velocity TUPLE:  X: 15 Y: 6 Z: 0
RANK: 0Before Vorticity TUPLE:  X: 15 Y: 6 Z: 0
RANK: 0Before Norm TUPLE:  X: 15 Y: 6 Z: 0
RANK: 0Before Velocity:  X: 16 Y: 6 Z: 0
RANK: 0Before Vorticity :  X: 16 Y: 6 Z: 0
RANK: 0Before Norm:  X: 16 Y: 6 Z: 0
RANK: 0Before Velocity TUPLE:  X: 16 Y: 6 Z: 0
RANK: 0Before Vorticity TUPLE:  X: 16 Y: 6 Z: 0
RANK: 0Before Norm TUPLE:  X: 16 Y: 6 Z: 0
RANK: 0Before Velocity:  X: 17 Y: 6 Z: 0
RANK: 0Before Vorticity :  X: 17 Y: 6 Z: 0
RANK: 0Before Norm:  X: 17 Y: 6 Z: 0
RANK: 0Before Velocity TUPLE:  X: 17 Y: 6 Z: 0
RANK: 0Before Vorticity TUPLE:  X: 17 Y: 6 Z: 0
RANK: 0Before Norm TUPLE:  X: 17 Y: 6 Z: 0
RANK: 0Before Velocity:  X: 18 Y: 6 Z: 0
RANK: 0Before Vorticity :  X: 18 Y: 6 Z: 0
RANK: 0Before Norm:  X: 18 Y: 6 Z: 0
RANK: 0Before Velocity TUPLE:  X: 18 Y: 6 Z: 0
RANK: 0Before Vorticity TUPLE:  X: 18 Y: 6 Z: 0
RANK: 0Before Norm TUPLE:  X: 18 Y: 6 Z: 0
RANK: 0Before Velocity:  X: 19 Y: 6 Z: 0
RANK: 0Before Vorticity :  X: 19 Y: 6 Z: 0
RANK: 0Before Norm:  X: 19 Y: 6 Z: 0
RANK: 0Before Velocity TUPLE:  X: 19 Y: 6 Z: 0
RANK: 0Before Vorticity TUPLE:  X: 19 Y: 6 Z: 0
RANK: 0Before Norm TUPLE:  X: 19 Y: 6 Z: 0
RANK: 0Before Velocity:  X: 20 Y: 6 Z: 0
RANK: 0Before Vorticity :  X: 20 Y: 6 Z: 0
RANK: 0Before Norm:  X: 20 Y: 6 Z: 0
RANK: 0Before Velocity TUPLE:  X: 20 Y: 6 Z: 0
RANK: 0Before Vorticity TUPLE:  X: 20 Y: 6 Z: 0
RANK: 0Before Norm TUPLE:  X: 20 Y: 6 Z: 0
RANK: 0Before Velocity:  X: 0 Y: 7 Z: 0
RANK: 0Before Vorticity :  X: 0 Y: 7 Z: 0
RANK: 0Before Norm:  X: 0 Y: 7 Z: 0
RANK: 0Before Velocity TUPLE:  X: 0 Y: 7 Z: 0
RANK: 0Before Vorticity TUPLE:  X: 0 Y: 7 Z: 0
RANK: 0Before Norm TUPLE:  X: 0 Y: 7 Z: 0
RANK: 0Before Velocity:  X: 1 Y: 7 Z: 0
RANK: 0Before Vorticity :  X: 1 Y: 7 Z: 0
RANK: 0Before Norm:  X: 1 Y: 7 Z: 0
RANK: 0Before Velocity TUPLE:  X: 1 Y: 7 Z: 0
RANK: 0Before Vorticity TUPLE:  X: 1 Y: 7 Z: 0
RANK: 0Before Norm TUPLE:  X: 1 Y: 7 Z: 0
RANK: 0Before Velocity:  X: 2 Y: 7 Z: 0
RANK: 0Before Vorticity :  X: 2 Y: 7 Z: 0
RANK: 0Before Norm:  X: 2 Y: 7 Z: 0
RANK: 0Before Velocity TUPLE:  X: 2 Y: 7 Z: 0
RANK: 0Before Vorticity TUPLE:  X: 2 Y: 7 Z: 0
RANK: 0Before Norm TUPLE:  X: 2 Y: 7 Z: 0
RANK: 0Before Velocity:  X: 3 Y: 7 Z: 0
RANK: 0Before Vorticity :  X: 3 Y: 7 Z: 0
RANK: 0Before Norm:  X: 3 Y: 7 Z: 0
RANK: 0Before Velocity TUPLE:  X: 3 Y: 7 Z: 0
RANK: 0Before Vorticity TUPLE:  X: 3 Y: 7 Z: 0
RANK: 0Before Norm TUPLE:  X: 3 Y: 7 Z: 0
RANK: 0Before Velocity:  X: 4 Y: 7 Z: 0
RANK: 0Before Vorticity :  X: 4 Y: 7 Z: 0
RANK: 0Before Norm:  X: 4 Y: 7 Z: 0
RANK: 0Before Velocity TUPLE:  X: 4 Y: 7 Z: 0
RANK: 0Before Vorticity TUPLE:  X: 4 Y: 7 Z: 0
RANK: 0Before Norm TUPLE:  X: 4 Y: 7 Z: 0
RANK: 0Before Velocity:  X: 5 Y: 7 Z: 0
RANK: 0Before Vorticity :  X: 5 Y: 7 Z: 0
RANK: 0Before Norm:  X: 5 Y: 7 Z: 0
RANK: 0Before Velocity TUPLE:  X: 5 Y: 7 Z: 0
RANK: 0Before Vorticity TUPLE:  X: 5 Y: 7 Z: 0
RANK: 0Before Norm TUPLE:  X: 5 Y: 7 Z: 0
RANK: 0Before Velocity:  X: 6 Y: 7 Z: 0
RANK: 0Before Vorticity :  X: 6 Y: 7 Z: 0
RANK: 0Before Norm:  X: 6 Y: 7 Z: 0
RANK: 0Before Velocity TUPLE:  X: 6 Y: 7 Z: 0
RANK: 0Before Vorticity TUPLE:  X: 6 Y: 7 Z: 0
RANK: 0Before Norm TUPLE:  X: 6 Y: 7 Z: 0
RANK: 0Before Velocity:  X: 7 Y: 7 Z: 0
RANK: 0Before Vorticity :  X: 7 Y: 7 Z: 0
RANK: 0Before Norm:  X: 7 Y: 7 Z: 0
RANK: 0Before Velocity TUPLE:  X: 7 Y: 7 Z: 0
RANK: 0Before Vorticity TUPLE:  X: 7 Y: 7 Z: 0
RANK: 0Before Norm TUPLE:  X: 7 Y: 7 Z: 0
RANK: 0Before Velocity:  X: 8 Y: 7 Z: 0
RANK: 0Before Vorticity :  X: 8 Y: 7 Z: 0
RANK: 0Before Norm:  X: 8 Y: 7 Z: 0
RANK: 0Before Velocity TUPLE:  X: 8 Y: 7 Z: 0
RANK: 0Before Vorticity TUPLE:  X: 8 Y: 7 Z: 0
RANK: 0Before Norm TUPLE:  X: 8 Y: 7 Z: 0
RANK: 0Before Velocity:  X: 9 Y: 7 Z: 0
RANK: 0Before Vorticity :  X: 9 Y: 7 Z: 0
RANK: 0Before Norm:  X: 9 Y: 7 Z: 0
RANK: 0Before Velocity TUPLE:  X: 9 Y: 7 Z: 0
RANK: 0Before Vorticity TUPLE:  X: 9 Y: 7 Z: 0
RANK: 0Before Norm TUPLE:  X: 9 Y: 7 Z: 0
RANK: 0Before Velocity:  X: 10 Y: 7 Z: 0
RANK: 0Before Vorticity :  X: 10 Y: 7 Z: 0
RANK: 0Before Norm:  X: 10 Y: 7 Z: 0
RANK: 0Before Velocity TUPLE:  X: 10 Y: 7 Z: 0
RANK: 0Before Vorticity TUPLE:  X: 10 Y: 7 Z: 0
RANK: 0Before Norm TUPLE:  X: 10 Y: 7 Z: 0
RANK: 0Before Velocity:  X: 11 Y: 7 Z: 0
RANK: 0Before Vorticity :  X: 11 Y: 7 Z: 0
RANK: 0Before Norm:  X: 11 Y: 7 Z: 0
RANK: 0Before Velocity TUPLE:  X: 11 Y: 7 Z: 0
RANK: 0Before Vorticity TUPLE:  X: 11 Y: 7 Z: 0
RANK: 0Before Norm TUPLE:  X: 11 Y: 7 Z: 0
RANK: 0Before Velocity:  X: 12 Y: 7 Z: 0
RANK: 0Before Vorticity :  X: 12 Y: 7 Z: 0
RANK: 0Before Norm:  X: 12 Y: 7 Z: 0
RANK: 0Before Velocity TUPLE:  X: 12 Y: 7 Z: 0
RANK: 0Before Vorticity TUPLE:  X: 12 Y: 7 Z: 0
RANK: 0Before Norm TUPLE:  X: 12 Y: 7 Z: 0
RANK: 0Before Velocity:  X: 13 Y: 7 Z: 0
RANK: 0Before Vorticity :  X: 13 Y: 7 Z: 0
RANK: 0Before Norm:  X: 13 Y: 7 Z: 0
RANK: 0Before Velocity TUPLE:  X: 13 Y: 7 Z: 0
RANK: 0Before Vorticity TUPLE:  X: 13 Y: 7 Z: 0
RANK: 0Before Norm TUPLE:  X: 13 Y: 7 Z: 0
RANK: 0Before Velocity:  X: 14 Y: 7 Z: 0
RANK: 0Before Vorticity :  X: 14 Y: 7 Z: 0
RANK: 0Before Norm:  X: 14 Y: 7 Z: 0
RANK: 0Before Velocity TUPLE:  X: 14 Y: 7 Z: 0
RANK: 0Before Vorticity TUPLE:  X: 14 Y: 7 Z: 0
RANK: 0Before Norm TUPLE:  X: 14 Y: 7 Z: 0
RANK: 0Before Velocity:  X: 15 Y: 7 Z: 0
RANK: 0Before Vorticity :  X: 15 Y: 7 Z: 0
RANK: 0Before Norm:  X: 15 Y: 7 Z: 0
RANK: 0Before Velocity TUPLE:  X: 15 Y: 7 Z: 0
RANK: 0Before Vorticity TUPLE:  X: 15 Y: 7 Z: 0
RANK: 0Before Norm TUPLE:  X: 15 Y: 7 Z: 0
RANK: 0Before Velocity:  X: 16 Y: 7 Z: 0
RANK: 0Before Vorticity :  X: 16 Y: 7 Z: 0
RANK: 0Before Norm:  X: 16 Y: 7 Z: 0
RANK: 0Before Velocity TUPLE:  X: 16 Y: 7 Z: 0
RANK: 0Before Vorticity TUPLE:  X: 16 Y: 7 Z: 0
RANK: 0Before Norm TUPLE:  X: 16 Y: 7 Z: 0
RANK: 0Before Velocity:  X: 17 Y: 7 Z: 0
RANK: 0Before Vorticity :  X: 17 Y: 7 Z: 0
RANK: 0Before Norm:  X: 17 Y: 7 Z: 0
RANK: 0Before Velocity TUPLE:  X: 17 Y: 7 Z: 0
RANK: 0Before Vorticity TUPLE:  X: 17 Y: 7 Z: 0
RANK: 0Before Norm TUPLE:  X: 17 Y: 7 Z: 0
RANK: 0Before Velocity:  X: 18 Y: 7 Z: 0
RANK: 0Before Vorticity :  X: 18 Y: 7 Z: 0
RANK: 0Before Norm:  X: 18 Y: 7 Z: 0
RANK: 0Before Velocity TUPLE:  X: 18 Y: 7 Z: 0
RANK: 0Before Vorticity TUPLE:  X: 18 Y: 7 Z: 0
RANK: 0Before Norm TUPLE:  X: 18 Y: 7 Z: 0
RANK: 0Before Velocity:  X: 19 Y: 7 Z: 0
RANK: 0Before Vorticity :  X: 19 Y: 7 Z: 0
RANK: 0Before Norm:  X: 19 Y: 7 Z: 0
RANK: 0Before Velocity TUPLE:  X: 19 Y: 7 Z: 0
RANK: 0Before Vorticity TUPLE:  X: 19 Y: 7 Z: 0
RANK: 0Before Norm TUPLE:  X: 19 Y: 7 Z: 0
RANK: 0Before Velocity:  X: 20 Y: 7 Z: 0
RANK: 0Before Vorticity :  X: 20 Y: 7 Z: 0
RANK: 0Before Norm:  X: 20 Y: 7 Z: 0
RANK: 0Before Velocity TUPLE:  X: 20 Y: 7 Z: 0
RANK: 0Before Vorticity TUPLE:  X: 20 Y: 7 Z: 0
RANK: 0Before Norm TUPLE:  X: 20 Y: 7 Z: 0
RANK: 0Before Velocity:  X: 0 Y: 8 Z: 0
RANK: 0Before Vorticity :  X: 0 Y: 8 Z: 0
RANK: 0Before Norm:  X: 0 Y: 8 Z: 0
RANK: 0Before Velocity TUPLE:  X: 0 Y: 8 Z: 0
RANK: 0Before Vorticity TUPLE:  X: 0 Y: 8 Z: 0
RANK: 0Before Norm TUPLE:  X: 0 Y: 8 Z: 0
RANK: 0Before Velocity:  X: 1 Y: 8 Z: 0
RANK: 0Before Vorticity :  X: 1 Y: 8 Z: 0
RANK: 0Before Norm:  X: 1 Y: 8 Z: 0
RANK: 0Before Velocity TUPLE:  X: 1 Y: 8 Z: 0
RANK: 0Before Vorticity TUPLE:  X: 1 Y: 8 Z: 0
RANK: 0Before Norm TUPLE:  X: 1 Y: 8 Z: 0
RANK: 0Before Velocity:  X: 2 Y: 8 Z: 0
RANK: 0Before Vorticity :  X: 2 Y: 8 Z: 0
RANK: 0Before Norm:  X: 2 Y: 8 Z: 0
RANK: 0Before Velocity TUPLE:  X: 2 Y: 8 Z: 0
RANK: 0Before Vorticity TUPLE:  X: 2 Y: 8 Z: 0
RANK: 0Before Norm TUPLE:  X: 2 Y: 8 Z: 0
RANK: 0Before Velocity:  X: 3 Y: 8 Z: 0
RANK: 0Before Vorticity :  X: 3 Y: 8 Z: 0
RANK: 0Before Norm:  X: 3 Y: 8 Z: 0
RANK: 0Before Velocity TUPLE:  X: 3 Y: 8 Z: 0
RANK: 0Before Vorticity TUPLE:  X: 3 Y: 8 Z: 0
RANK: 0Before Norm TUPLE:  X: 3 Y: 8 Z: 0
RANK: 0Before Velocity:  X: 4 Y: 8 Z: 0
RANK: 0Before Vorticity :  X: 4 Y: 8 Z: 0
RANK: 0Before Norm:  X: 4 Y: 8 Z: 0
RANK: 0Before Velocity TUPLE:  X: 4 Y: 8 Z: 0
RANK: 0Before Vorticity TUPLE:  X: 4 Y: 8 Z: 0
RANK: 0Before Norm TUPLE:  X: 4 Y: 8 Z: 0
RANK: 0Before Velocity:  X: 5 Y: 8 Z: 0
RANK: 0Before Vorticity :  X: 5 Y: 8 Z: 0
RANK: 0Before Norm:  X: 5 Y: 8 Z: 0
RANK: 0Before Velocity TUPLE:  X: 5 Y: 8 Z: 0
RANK: 0Before Vorticity TUPLE:  X: 5 Y: 8 Z: 0
RANK: 0Before Norm TUPLE:  X: 5 Y: 8 Z: 0
RANK: 0Before Velocity:  X: 6 Y: 8 Z: 0
RANK: 0Before Vorticity :  X: 6 Y: 8 Z: 0
RANK: 0Before Norm:  X: 6 Y: 8 Z: 0
RANK: 0Before Velocity TUPLE:  X: 6 Y: 8 Z: 0
RANK: 0Before Vorticity TUPLE:  X: 6 Y: 8 Z: 0
RANK: 0Before Norm TUPLE:  X: 6 Y: 8 Z: 0
RANK: 0Before Velocity:  X: 7 Y: 8 Z: 0
RANK: 0Before Vorticity :  X: 7 Y: 8 Z: 0
RANK: 0Before Norm:  X: 7 Y: 8 Z: 0
RANK: 0Before Velocity TUPLE:  X: 7 Y: 8 Z: 0
RANK: 0Before Vorticity TUPLE:  X: 7 Y: 8 Z: 0
RANK: 0Before Norm TUPLE:  X: 7 Y: 8 Z: 0
RANK: 0Before Velocity:  X: 8 Y: 8 Z: 0
RANK: 0Before Vorticity :  X: 8 Y: 8 Z: 0
RANK: 0Before Norm:  X: 8 Y: 8 Z: 0
RANK: 0Before Velocity TUPLE:  X: 8 Y: 8 Z: 0
RANK: 0Before Vorticity TUPLE:  X: 8 Y: 8 Z: 0
RANK: 0Before Norm TUPLE:  X: 8 Y: 8 Z: 0
RANK: 0Before Velocity:  X: 9 Y: 8 Z: 0
RANK: 0Before Vorticity :  X: 9 Y: 8 Z: 0
RANK: 0Before Norm:  X: 9 Y: 8 Z: 0
RANK: 0Before Velocity TUPLE:  X: 9 Y: 8 Z: 0
RANK: 0Before Vorticity TUPLE:  X: 9 Y: 8 Z: 0
RANK: 0Before Norm TUPLE:  X: 9 Y: 8 Z: 0
RANK: 0Before Velocity:  X: 10 Y: 8 Z: 0
RANK: 0Before Vorticity :  X: 10 Y: 8 Z: 0
RANK: 0Before Norm:  X: 10 Y: 8 Z: 0
RANK: 0Before Velocity TUPLE:  X: 10 Y: 8 Z: 0
RANK: 0Before Vorticity TUPLE:  X: 10 Y: 8 Z: 0
RANK: 0Before Norm TUPLE:  X: 10 Y: 8 Z: 0
RANK: 0Before Velocity:  X: 11 Y: 8 Z: 0
RANK: 0Before Vorticity :  X: 11 Y: 8 Z: 0
RANK: 0Before Norm:  X: 11 Y: 8 Z: 0
RANK: 0Before Velocity TUPLE:  X: 11 Y: 8 Z: 0
RANK: 0Before Vorticity TUPLE:  X: 11 Y: 8 Z: 0
RANK: 0Before Norm TUPLE:  X: 11 Y: 8 Z: 0
RANK: 0Before Velocity:  X: 12 Y: 8 Z: 0
RANK: 0Before Vorticity :  X: 12 Y: 8 Z: 0
RANK: 0Before Norm:  X: 12 Y: 8 Z: 0
RANK: 0Before Velocity TUPLE:  X: 12 Y: 8 Z: 0
RANK: 0Before Vorticity TUPLE:  X: 12 Y: 8 Z: 0
RANK: 0Before Norm TUPLE:  X: 12 Y: 8 Z: 0
RANK: 0Before Velocity:  X: 13 Y: 8 Z: 0
RANK: 0Before Vorticity :  X: 13 Y: 8 Z: 0
RANK: 0Before Norm:  X: 13 Y: 8 Z: 0
RANK: 0Before Velocity TUPLE:  X: 13 Y: 8 Z: 0
RANK: 0Before Vorticity TUPLE:  X: 13 Y: 8 Z: 0
RANK: 0Before Norm TUPLE:  X: 13 Y: 8 Z: 0
RANK: 0Before Velocity:  X: 14 Y: 8 Z: 0
RANK: 0Before Vorticity :  X: 14 Y: 8 Z: 0
RANK: 0Before Norm:  X: 14 Y: 8 Z: 0
RANK: 0Before Velocity TUPLE:  X: 14 Y: 8 Z: 0
RANK: 0Before Vorticity TUPLE:  X: 14 Y: 8 Z: 0
RANK: 0Before Norm TUPLE:  X: 14 Y: 8 Z: 0
RANK: 0Before Velocity:  X: 15 Y: 8 Z: 0
RANK: 0Before Vorticity :  X: 15 Y: 8 Z: 0
RANK: 0Before Norm:  X: 15 Y: 8 Z: 0
RANK: 0Before Velocity TUPLE:  X: 15 Y: 8 Z: 0
RANK: 0Before Vorticity TUPLE:  X: 15 Y: 8 Z: 0
RANK: 0Before Norm TUPLE:  X: 15 Y: 8 Z: 0
RANK: 0Before Velocity:  X: 16 Y: 8 Z: 0
RANK: 0Before Vorticity :  X: 16 Y: 8 Z: 0
RANK: 0Before Norm:  X: 16 Y: 8 Z: 0
RANK: 0Before Velocity TUPLE:  X: 16 Y: 8 Z: 0
RANK: 0Before Vorticity TUPLE:  X: 16 Y: 8 Z: 0
RANK: 0Before Norm TUPLE:  X: 16 Y: 8 Z: 0
RANK: 0Before Velocity:  X: 17 Y: 8 Z: 0
RANK: 0Before Vorticity :  X: 17 Y: 8 Z: 0
RANK: 0Before Norm:  X: 17 Y: 8 Z: 0
RANK: 0Before Velocity TUPLE:  X: 17 Y: 8 Z: 0
RANK: 0Before Vorticity TUPLE:  X: 17 Y: 8 Z: 0
RANK: 0Before Norm TUPLE:  X: 17 Y: 8 Z: 0
RANK: 0Before Velocity:  X: 18 Y: 8 Z: 0
RANK: 0Before Vorticity :  X: 18 Y: 8 Z: 0
RANK: 0Before Norm:  X: 18 Y: 8 Z: 0
RANK: 0Before Velocity TUPLE:  X: 18 Y: 8 Z: 0
RANK: 0Before Vorticity TUPLE:  X: 18 Y: 8 Z: 0
RANK: 0Before Norm TUPLE:  X: 18 Y: 8 Z: 0
RANK: 0Before Velocity:  X: 19 Y: 8 Z: 0
RANK: 0Before Vorticity :  X: 19 Y: 8 Z: 0
RANK: 0Before Norm:  X: 19 Y: 8 Z: 0
RANK: 0Before Velocity TUPLE:  X: 19 Y: 8 Z: 0
RANK: 0Before Vorticity TUPLE:  X: 19 Y: 8 Z: 0
RANK: 0Before Norm TUPLE:  X: 19 Y: 8 Z: 0
RANK: 0Before Velocity:  X: 20 Y: 8 Z: 0
RANK: 0Before Vorticity :  X: 20 Y: 8 Z: 0
RANK: 0Before Norm:  X: 20 Y: 8 Z: 0
RANK: 0Before Velocity TUPLE:  X: 20 Y: 8 Z: 0
RANK: 0Before Vorticity TUPLE:  X: 20 Y: 8 Z: 0
RANK: 0Before Norm TUPLE:  X: 20 Y: 8 Z: 0
RANK: 0Before Velocity:  X: 0 Y: 9 Z: 0
RANK: 0Before Vorticity :  X: 0 Y: 9 Z: 0
RANK: 0Before Norm:  X: 0 Y: 9 Z: 0
RANK: 0Before Velocity TUPLE:  X: 0 Y: 9 Z: 0
RANK: 0Before Vorticity TUPLE:  X: 0 Y: 9 Z: 0
RANK: 0Before Norm TUPLE:  X: 0 Y: 9 Z: 0
RANK: 0Before Velocity:  X: 1 Y: 9 Z: 0
RANK: 0Before Vorticity :  X: 1 Y: 9 Z: 0
RANK: 0Before Norm:  X: 1 Y: 9 Z: 0
RANK: 0Before Velocity TUPLE:  X: 1 Y: 9 Z: 0
RANK: 0Before Vorticity TUPLE:  X: 1 Y: 9 Z: 0
RANK: 0Before Norm TUPLE:  X: 1 Y: 9 Z: 0
RANK: 0Before Velocity:  X: 2 Y: 9 Z: 0
RANK: 0Before Vorticity :  X: 2 Y: 9 Z: 0
RANK: 0Before Norm:  X: 2 Y: 9 Z: 0
RANK: 0Before Velocity TUPLE:  X: 2 Y: 9 Z: 0
RANK: 0Before Vorticity TUPLE:  X: 2 Y: 9 Z: 0
RANK: 0Before Norm TUPLE:  X: 2 Y: 9 Z: 0
RANK: 0Before Velocity:  X: 3 Y: 9 Z: 0
RANK: 0Before Vorticity :  X: 3 Y: 9 Z: 0
RANK: 0Before Norm:  X: 3 Y: 9 Z: 0
RANK: 0Before Velocity TUPLE:  X: 3 Y: 9 Z: 0
RANK: 0Before Vorticity TUPLE:  X: 3 Y: 9 Z: 0
RANK: 0Before Norm TUPLE:  X: 3 Y: 9 Z: 0
RANK: 0Before Velocity:  X: 4 Y: 9 Z: 0
RANK: 0Before Vorticity :  X: 4 Y: 9 Z: 0
RANK: 0Before Norm:  X: 4 Y: 9 Z: 0
RANK: 0Before Velocity TUPLE:  X: 4 Y: 9 Z: 0
RANK: 0Before Vorticity TUPLE:  X: 4 Y: 9 Z: 0
RANK: 0Before Norm TUPLE:  X: 4 Y: 9 Z: 0
RANK: 0Before Velocity:  X: 5 Y: 9 Z: 0
RANK: 0Before Vorticity :  X: 5 Y: 9 Z: 0
RANK: 0Before Norm:  X: 5 Y: 9 Z: 0
RANK: 0Before Velocity TUPLE:  X: 5 Y: 9 Z: 0
RANK: 0Before Vorticity TUPLE:  X: 5 Y: 9 Z: 0
RANK: 0Before Norm TUPLE:  X: 5 Y: 9 Z: 0
RANK: 0Before Velocity:  X: 6 Y: 9 Z: 0
RANK: 0Before Vorticity :  X: 6 Y: 9 Z: 0
RANK: 0Before Norm:  X: 6 Y: 9 Z: 0
RANK: 0Before Velocity TUPLE:  X: 6 Y: 9 Z: 0
RANK: 0Before Vorticity TUPLE:  X: 6 Y: 9 Z: 0
RANK: 0Before Norm TUPLE:  X: 6 Y: 9 Z: 0
RANK: 0Before Velocity:  X: 7 Y: 9 Z: 0
RANK: 0Before Vorticity :  X: 7 Y: 9 Z: 0
RANK: 0Before Norm:  X: 7 Y: 9 Z: 0
RANK: 0Before Velocity TUPLE:  X: 7 Y: 9 Z: 0
RANK: 0Before Vorticity TUPLE:  X: 7 Y: 9 Z: 0
RANK: 0Before Norm TUPLE:  X: 7 Y: 9 Z: 0
RANK: 0Before Velocity:  X: 8 Y: 9 Z: 0
RANK: 0Before Vorticity :  X: 8 Y: 9 Z: 0
RANK: 0Before Norm:  X: 8 Y: 9 Z: 0
RANK: 0Before Velocity TUPLE:  X: 8 Y: 9 Z: 0
RANK: 0Before Vorticity TUPLE:  X: 8 Y: 9 Z: 0
RANK: 0Before Norm TUPLE:  X: 8 Y: 9 Z: 0
RANK: 0Before Velocity:  X: 9 Y: 9 Z: 0
RANK: 0Before Vorticity :  X: 9 Y: 9 Z: 0
RANK: 0Before Norm:  X: 9 Y: 9 Z: 0
RANK: 0Before Velocity TUPLE:  X: 9 Y: 9 Z: 0
RANK: 0Before Vorticity TUPLE:  X: 9 Y: 9 Z: 0
RANK: 0Before Norm TUPLE:  X: 9 Y: 9 Z: 0
RANK: 0Before Velocity:  X: 10 Y: 9 Z: 0
RANK: 0Before Vorticity :  X: 10 Y: 9 Z: 0
RANK: 0Before Norm:  X: 10 Y: 9 Z: 0
RANK: 0Before Velocity TUPLE:  X: 10 Y: 9 Z: 0
RANK: 0Before Vorticity TUPLE:  X: 10 Y: 9 Z: 0
RANK: 0Before Norm TUPLE:  X: 10 Y: 9 Z: 0
RANK: 0Before Velocity:  X: 11 Y: 9 Z: 0
RANK: 0Before Vorticity :  X: 11 Y: 9 Z: 0
RANK: 0Before Norm:  X: 11 Y: 9 Z: 0
RANK: 0Before Velocity TUPLE:  X: 11 Y: 9 Z: 0
RANK: 0Before Vorticity TUPLE:  X: 11 Y: 9 Z: 0
RANK: 0Before Norm TUPLE:  X: 11 Y: 9 Z: 0
RANK: 0Before Velocity:  X: 12 Y: 9 Z: 0
RANK: 0Before Vorticity :  X: 12 Y: 9 Z: 0
RANK: 0Before Norm:  X: 12 Y: 9 Z: 0
RANK: 0Before Velocity TUPLE:  X: 12 Y: 9 Z: 0
RANK: 0Before Vorticity TUPLE:  X: 12 Y: 9 Z: 0
RANK: 0Before Norm TUPLE:  X: 12 Y: 9 Z: 0
RANK: 0Before Velocity:  X: 13 Y: 9 Z: 0
RANK: 0Before Vorticity :  X: 13 Y: 9 Z: 0
RANK: 0Before Norm:  X: 13 Y: 9 Z: 0
RANK: 0Before Velocity TUPLE:  X: 13 Y: 9 Z: 0
RANK: 0Before Vorticity TUPLE:  X: 13 Y: 9 Z: 0
RANK: 0Before Norm TUPLE:  X: 13 Y: 9 Z: 0
RANK: 0Before Velocity:  X: 14 Y: 9 Z: 0
RANK: 0Before Vorticity :  X: 14 Y: 9 Z: 0
RANK: 0Before Norm:  X: 14 Y: 9 Z: 0
RANK: 0Before Velocity TUPLE:  X: 14 Y: 9 Z: 0
RANK: 0Before Vorticity TUPLE:  X: 14 Y: 9 Z: 0
RANK: 0Before Norm TUPLE:  X: 14 Y: 9 Z: 0
RANK: 0Before Velocity:  X: 15 Y: 9 Z: 0
RANK: 0Before Vorticity :  X: 15 Y: 9 Z: 0
RANK: 0Before Norm:  X: 15 Y: 9 Z: 0
RANK: 0Before Velocity TUPLE:  X: 15 Y: 9 Z: 0
RANK: 0Before Vorticity TUPLE:  X: 15 Y: 9 Z: 0
RANK: 0Before Norm TUPLE:  X: 15 Y: 9 Z: 0
RANK: 0Before Velocity:  X: 16 Y: 9 Z: 0
RANK: 0Before Vorticity :  X: 16 Y: 9 Z: 0
RANK: 0Before Norm:  X: 16 Y: 9 Z: 0
RANK: 0Before Velocity TUPLE:  X: 16 Y: 9 Z: 0
RANK: 0Before Vorticity TUPLE:  X: 16 Y: 9 Z: 0
RANK: 0Before Norm TUPLE:  X: 16 Y: 9 Z: 0
RANK: 0Before Velocity:  X: 17 Y: 9 Z: 0
RANK: 0Before Vorticity :  X: 17 Y: 9 Z: 0
RANK: 0Before Norm:  X: 17 Y: 9 Z: 0
RANK: 0Before Velocity TUPLE:  X: 17 Y: 9 Z: 0
RANK: 0Before Vorticity TUPLE:  X: 17 Y: 9 Z: 0
RANK: 0Before Norm TUPLE:  X: 17 Y: 9 Z: 0
RANK: 0Before Velocity:  X: 18 Y: 9 Z: 0
RANK: 0Before Vorticity :  X: 18 Y: 9 Z: 0
RANK: 0Before Norm:  X: 18 Y: 9 Z: 0
RANK: 0Before Velocity TUPLE:  X: 18 Y: 9 Z: 0
RANK: 0Before Vorticity TUPLE:  X: 18 Y: 9 Z: 0
RANK: 0Before Norm TUPLE:  X: 18 Y: 9 Z: 0
RANK: 0Before Velocity:  X: 19 Y: 9 Z: 0
RANK: 0Before Vorticity :  X: 19 Y: 9 Z: 0
RANK: 0Before Norm:  X: 19 Y: 9 Z: 0
RANK: 0Before Velocity TUPLE:  X: 19 Y: 9 Z: 0
RANK: 0Before Vorticity TUPLE:  X: 19 Y: 9 Z: 0
RANK: 0Before Norm TUPLE:  X: 19 Y: 9 Z: 0
RANK: 0Before Velocity:  X: 20 Y: 9 Z: 0
RANK: 0Before Vorticity :  X: 20 Y: 9 Z: 0
RANK: 0Before Norm:  X: 20 Y: 9 Z: 0
RANK: 0Before Velocity TUPLE:  X: 20 Y: 9 Z: 0
RANK: 0Before Vorticity TUPLE:  X: 20 Y: 9 Z: 0
RANK: 0Before Norm TUPLE:  X: 20 Y: 9 Z: 0
RANK: 0Before Velocity:  X: 0 Y: 10 Z: 0
RANK: 0Before Vorticity :  X: 0 Y: 10 Z: 0
RANK: 0Before Norm:  X: 0 Y: 10 Z: 0
RANK: 0Before Velocity TUPLE:  X: 0 Y: 10 Z: 0
RANK: 0Before Vorticity TUPLE:  X: 0 Y: 10 Z: 0
RANK: 0Before Norm TUPLE:  X: 0 Y: 10 Z: 0
RANK: 0Before Velocity:  X: 1 Y: 10 Z: 0
RANK: 0Before Vorticity :  X: 1 Y: 10 Z: 0
RANK: 0Before Norm:  X: 1 Y: 10 Z: 0
RANK: 0Before Velocity TUPLE:  X: 1 Y: 10 Z: 0
RANK: 0Before Vorticity TUPLE:  X: 1 Y: 10 Z: 0
RANK: 0Before Norm TUPLE:  X: 1 Y: 10 Z: 0
RANK: 0Before Velocity:  X: 2 Y: 10 Z: 0
RANK: 0Before Vorticity :  X: 2 Y: 10 Z: 0
RANK: 0Before Norm:  X: 2 Y: 10 Z: 0
RANK: 0Before Velocity TUPLE:  X: 2 Y: 10 Z: 0
RANK: 0Before Vorticity TUPLE:  X: 2 Y: 10 Z: 0
RANK: 0Before Norm TUPLE:  X: 2 Y: 10 Z: 0
RANK: 0Before Velocity:  X: 3 Y: 10 Z: 0
RANK: 0Before Vorticity :  X: 3 Y: 10 Z: 0
RANK: 0Before Norm:  X: 3 Y: 10 Z: 0
RANK: 0Before Velocity TUPLE:  X: 3 Y: 10 Z: 0
RANK: 0Before Vorticity TUPLE:  X: 3 Y: 10 Z: 0
RANK: 0Before Norm TUPLE:  X: 3 Y: 10 Z: 0
RANK: 0Before Velocity:  X: 4 Y: 10 Z: 0
RANK: 0Before Vorticity :  X: 4 Y: 10 Z: 0
RANK: 0Before Norm:  X: 4 Y: 10 Z: 0
RANK: 0Before Velocity TUPLE:  X: 4 Y: 10 Z: 0
RANK: 0Before Vorticity TUPLE:  X: 4 Y: 10 Z: 0
RANK: 0Before Norm TUPLE:  X: 4 Y: 10 Z: 0
RANK: 0Before Velocity:  X: 5 Y: 10 Z: 0
RANK: 0Before Vorticity :  X: 5 Y: 10 Z: 0
RANK: 0Before Norm:  X: 5 Y: 10 Z: 0
RANK: 0Before Velocity TUPLE:  X: 5 Y: 10 Z: 0
RANK: 0Before Vorticity TUPLE:  X: 5 Y: 10 Z: 0
RANK: 0Before Norm TUPLE:  X: 5 Y: 10 Z: 0
RANK: 0Before Velocity:  X: 6 Y: 10 Z: 0
RANK: 0Before Vorticity :  X: 6 Y: 10 Z: 0
RANK: 0Before Norm:  X: 6 Y: 10 Z: 0
RANK: 0Before Velocity TUPLE:  X: 6 Y: 10 Z: 0
RANK: 0Before Vorticity TUPLE:  X: 6 Y: 10 Z: 0
RANK: 0Before Norm TUPLE:  X: 6 Y: 10 Z: 0
RANK: 0Before Velocity:  X: 7 Y: 10 Z: 0
RANK: 0Before Vorticity :  X: 7 Y: 10 Z: 0
RANK: 0Before Norm:  X: 7 Y: 10 Z: 0
RANK: 0Before Velocity TUPLE:  X: 7 Y: 10 Z: 0
RANK: 0Before Vorticity TUPLE:  X: 7 Y: 10 Z: 0
RANK: 0Before Norm TUPLE:  X: 7 Y: 10 Z: 0
RANK: 0Before Velocity:  X: 8 Y: 10 Z: 0
RANK: 0Before Vorticity :  X: 8 Y: 10 Z: 0
RANK: 0Before Norm:  X: 8 Y: 10 Z: 0
RANK: 0Before Velocity TUPLE:  X: 8 Y: 10 Z: 0
RANK: 0Before Vorticity TUPLE:  X: 8 Y: 10 Z: 0
RANK: 0Before Norm TUPLE:  X: 8 Y: 10 Z: 0
RANK: 0Before Velocity:  X: 9 Y: 10 Z: 0
RANK: 0Before Vorticity :  X: 9 Y: 10 Z: 0
RANK: 0Before Norm:  X: 9 Y: 10 Z: 0
RANK: 0Before Velocity TUPLE:  X: 9 Y: 10 Z: 0
RANK: 0Before Vorticity TUPLE:  X: 9 Y: 10 Z: 0
RANK: 0Before Norm TUPLE:  X: 9 Y: 10 Z: 0
RANK: 0Before Velocity:  X: 10 Y: 10 Z: 0
RANK: 0Before Vorticity :  X: 10 Y: 10 Z: 0
RANK: 0Before Norm:  X: 10 Y: 10 Z: 0
RANK: 0Before Velocity TUPLE:  X: 10 Y: 10 Z: 0
RANK: 0Before Vorticity TUPLE:  X: 10 Y: 10 Z: 0
RANK: 0Before Norm TUPLE:  X: 10 Y: 10 Z: 0
RANK: 0Before Velocity:  X: 11 Y: 10 Z: 0
RANK: 0Before Vorticity :  X: 11 Y: 10 Z: 0
RANK: 0Before Norm:  X: 11 Y: 10 Z: 0
RANK: 0Before Velocity TUPLE:  X: 11 Y: 10 Z: 0
RANK: 0Before Vorticity TUPLE:  X: 11 Y: 10 Z: 0
RANK: 0Before Norm TUPLE:  X: 11 Y: 10 Z: 0
RANK: 0Before Velocity:  X: 12 Y: 10 Z: 0
RANK: 0Before Vorticity :  X: 12 Y: 10 Z: 0
RANK: 0Before Norm:  X: 12 Y: 10 Z: 0
RANK: 0Before Velocity TUPLE:  X: 12 Y: 10 Z: 0
RANK: 0Before Vorticity TUPLE:  X: 12 Y: 10 Z: 0
RANK: 0Before Norm TUPLE:  X: 12 Y: 10 Z: 0
RANK: 0Before Velocity:  X: 13 Y: 10 Z: 0
RANK: 0Before Vorticity :  X: 13 Y: 10 Z: 0
RANK: 0Before Norm:  X: 13 Y: 10 Z: 0
RANK: 0Before Velocity TUPLE:  X: 13 Y: 10 Z: 0
RANK: 0Before Vorticity TUPLE:  X: 13 Y: 10 Z: 0
RANK: 0Before Norm TUPLE:  X: 13 Y: 10 Z: 0
RANK: 0Before Velocity:  X: 14 Y: 10 Z: 0
RANK: 0Before Vorticity :  X: 14 Y: 10 Z: 0
RANK: 0Before Norm:  X: 14 Y: 10 Z: 0
RANK: 0Before Velocity TUPLE:  X: 14 Y: 10 Z: 0
RANK: 0Before Vorticity TUPLE:  X: 14 Y: 10 Z: 0
RANK: 0Before Norm TUPLE:  X: 14 Y: 10 Z: 0
RANK: 0Before Velocity:  X: 15 Y: 10 Z: 0
RANK: 0Before Vorticity :  X: 15 Y: 10 Z: 0
RANK: 0Before Norm:  X: 15 Y: 10 Z: 0
RANK: 0Before Velocity TUPLE:  X: 15 Y: 10 Z: 0
RANK: 0Before Vorticity TUPLE:  X: 15 Y: 10 Z: 0
RANK: 0Before Norm TUPLE:  X: 15 Y: 10 Z: 0
RANK: 0Before Velocity:  X: 16 Y: 10 Z: 0
RANK: 0Before Vorticity :  X: 16 Y: 10 Z: 0
RANK: 0Before Norm:  X: 16 Y: 10 Z: 0
RANK: 0Before Velocity TUPLE:  X: 16 Y: 10 Z: 0
RANK: 0Before Vorticity TUPLE:  X: 16 Y: 10 Z: 0
RANK: 0Before Norm TUPLE:  X: 16 Y: 10 Z: 0
RANK: 0Before Velocity:  X: 17 Y: 10 Z: 0
RANK: 0Before Vorticity :  X: 17 Y: 10 Z: 0
RANK: 0Before Norm:  X: 17 Y: 10 Z: 0
RANK: 0Before Velocity TUPLE:  X: 17 Y: 10 Z: 0
RANK: 0Before Vorticity TUPLE:  X: 17 Y: 10 Z: 0
RANK: 0Before Norm TUPLE:  X: 17 Y: 10 Z: 0
RANK: 0Before Velocity:  X: 18 Y: 10 Z: 0
RANK: 0Before Vorticity :  X: 18 Y: 10 Z: 0
RANK: 0Before Norm:  X: 18 Y: 10 Z: 0
RANK: 0Before Velocity TUPLE:  X: 18 Y: 10 Z: 0
RANK: 0Before Vorticity TUPLE:  X: 18 Y: 10 Z: 0
RANK: 0Before Norm TUPLE:  X: 18 Y: 10 Z: 0
RANK: 0Before Velocity:  X: 19 Y: 10 Z: 0
RANK: 0Before Vorticity :  X: 19 Y: 10 Z: 0
RANK: 0Before Norm:  X: 19 Y: 10 Z: 0
RANK: 0Before Velocity TUPLE:  X: 19 Y: 10 Z: 0
RANK: 0Before Vorticity TUPLE:  X: 19 Y: 10 Z: 0
RANK: 0Before Norm TUPLE:  X: 19 Y: 10 Z: 0
RANK: 0Before Velocity:  X: 20 Y: 10 Z: 0
RANK: 0Before Vorticity :  X: 20 Y: 10 Z: 0
RANK: 0Before Norm:  X: 20 Y: 10 Z: 0
RANK: 0Before Velocity TUPLE:  X: 20 Y: 10 Z: 0
RANK: 0Before Vorticity TUPLE:  X: 20 Y: 10 Z: 0
RANK: 0Before Norm TUPLE:  X: 20 Y: 10 Z: 0
RANK: 0Before Velocity:  X: 0 Y: 11 Z: 0
RANK: 0Before Vorticity :  X: 0 Y: 11 Z: 0
RANK: 0Before Norm:  X: 0 Y: 11 Z: 0
RANK: 0Before Velocity TUPLE:  X: 0 Y: 11 Z: 0
RANK: 0Before Vorticity TUPLE:  X: 0 Y: 11 Z: 0
RANK: 0Before Norm TUPLE:  X: 0 Y: 11 Z: 0
RANK: 0Before Velocity:  X: 1 Y: 11 Z: 0
RANK: 0Before Vorticity :  X: 1 Y: 11 Z: 0
RANK: 0Before Norm:  X: 1 Y: 11 Z: 0
RANK: 0Before Velocity TUPLE:  X: 1 Y: 11 Z: 0
RANK: 0Before Vorticity TUPLE:  X: 1 Y: 11 Z: 0
RANK: 0Before Norm TUPLE:  X: 1 Y: 11 Z: 0
RANK: 0Before Velocity:  X: 2 Y: 11 Z: 0
RANK: 0Before Vorticity :  X: 2 Y: 11 Z: 0
RANK: 0Before Norm:  X: 2 Y: 11 Z: 0
RANK: 0Before Velocity TUPLE:  X: 2 Y: 11 Z: 0
RANK: 0Before Vorticity TUPLE:  X: 2 Y: 11 Z: 0
RANK: 0Before Norm TUPLE:  X: 2 Y: 11 Z: 0
RANK: 0Before Velocity:  X: 3 Y: 11 Z: 0
RANK: 0Before Vorticity :  X: 3 Y: 11 Z: 0
RANK: 0Before Norm:  X: 3 Y: 11 Z: 0
RANK: 0Before Velocity TUPLE:  X: 3 Y: 11 Z: 0
RANK: 0Before Vorticity TUPLE:  X: 3 Y: 11 Z: 0
RANK: 0Before Norm TUPLE:  X: 3 Y: 11 Z: 0
RANK: 0Before Velocity:  X: 4 Y: 11 Z: 0
RANK: 0Before Vorticity :  X: 4 Y: 11 Z: 0
RANK: 0Before Norm:  X: 4 Y: 11 Z: 0
RANK: 0Before Velocity TUPLE:  X: 4 Y: 11 Z: 0
RANK: 0Before Vorticity TUPLE:  X: 4 Y: 11 Z: 0
RANK: 0Before Norm TUPLE:  X: 4 Y: 11 Z: 0
RANK: 0Before Velocity:  X: 5 Y: 11 Z: 0
RANK: 0Before Vorticity :  X: 5 Y: 11 Z: 0
RANK: 0Before Norm:  X: 5 Y: 11 Z: 0
RANK: 0Before Velocity TUPLE:  X: 5 Y: 11 Z: 0
RANK: 0Before Vorticity TUPLE:  X: 5 Y: 11 Z: 0
RANK: 0Before Norm TUPLE:  X: 5 Y: 11 Z: 0
RANK: 0Before Velocity:  X: 6 Y: 11 Z: 0
RANK: 0Before Vorticity :  X: 6 Y: 11 Z: 0
RANK: 0Before Norm:  X: 6 Y: 11 Z: 0
RANK: 0Before Velocity TUPLE:  X: 6 Y: 11 Z: 0
RANK: 0Before Vorticity TUPLE:  X: 6 Y: 11 Z: 0
RANK: 0Before Norm TUPLE:  X: 6 Y: 11 Z: 0
RANK: 0Before Velocity:  X: 7 Y: 11 Z: 0
RANK: 0Before Vorticity :  X: 7 Y: 11 Z: 0
RANK: 0Before Norm:  X: 7 Y: 11 Z: 0
RANK: 0Before Velocity TUPLE:  X: 7 Y: 11 Z: 0
RANK: 0Before Vorticity TUPLE:  X: 7 Y: 11 Z: 0
RANK: 0Before Norm TUPLE:  X: 7 Y: 11 Z: 0
RANK: 0Before Velocity:  X: 8 Y: 11 Z: 0
RANK: 0Before Vorticity :  X: 8 Y: 11 Z: 0
RANK: 0Before Norm:  X: 8 Y: 11 Z: 0
RANK: 0Before Velocity TUPLE:  X: 8 Y: 11 Z: 0
RANK: 0Before Vorticity TUPLE:  X: 8 Y: 11 Z: 0
RANK: 0Before Norm TUPLE:  X: 8 Y: 11 Z: 0
RANK: 0Before Velocity:  X: 9 Y: 11 Z: 0
RANK: 0Before Vorticity :  X: 9 Y: 11 Z: 0
RANK: 0Before Norm:  X: 9 Y: 11 Z: 0
RANK: 0Before Velocity TUPLE:  X: 9 Y: 11 Z: 0
RANK: 0Before Vorticity TUPLE:  X: 9 Y: 11 Z: 0
RANK: 0Before Norm TUPLE:  X: 9 Y: 11 Z: 0
RANK: 0Before Velocity:  X: 10 Y: 11 Z: 0
RANK: 0Before Vorticity :  X: 10 Y: 11 Z: 0
RANK: 0Before Norm:  X: 10 Y: 11 Z: 0
RANK: 0Before Velocity TUPLE:  X: 10 Y: 11 Z: 0
RANK: 0Before Vorticity TUPLE:  X: 10 Y: 11 Z: 0
RANK: 0Before Norm TUPLE:  X: 10 Y: 11 Z: 0
RANK: 0Before Velocity:  X: 11 Y: 11 Z: 0
RANK: 0Before Vorticity :  X: 11 Y: 11 Z: 0
RANK: 0Before Norm:  X: 11 Y: 11 Z: 0
RANK: 0Before Velocity TUPLE:  X: 11 Y: 11 Z: 0
RANK: 0Before Vorticity TUPLE:  X: 11 Y: 11 Z: 0
RANK: 0Before Norm TUPLE:  X: 11 Y: 11 Z: 0
RANK: 0Before Velocity:  X: 12 Y: 11 Z: 0
RANK: 0Before Vorticity :  X: 12 Y: 11 Z: 0
RANK: 0Before Norm:  X: 12 Y: 11 Z: 0
RANK: 0Before Velocity TUPLE:  X: 12 Y: 11 Z: 0
RANK: 0Before Vorticity TUPLE:  X: 12 Y: 11 Z: 0
RANK: 0Before Norm TUPLE:  X: 12 Y: 11 Z: 0
RANK: 0Before Velocity:  X: 13 Y: 11 Z: 0
RANK: 0Before Vorticity :  X: 13 Y: 11 Z: 0
RANK: 0Before Norm:  X: 13 Y: 11 Z: 0
RANK: 0Before Velocity TUPLE:  X: 13 Y: 11 Z: 0
RANK: 0Before Vorticity TUPLE:  X: 13 Y: 11 Z: 0
RANK: 0Before Norm TUPLE:  X: 13 Y: 11 Z: 0
RANK: 0Before Velocity:  X: 14 Y: 11 Z: 0
RANK: 0Before Vorticity :  X: 14 Y: 11 Z: 0
RANK: 0Before Norm:  X: 14 Y: 11 Z: 0
RANK: 0Before Velocity TUPLE:  X: 14 Y: 11 Z: 0
RANK: 0Before Vorticity TUPLE:  X: 14 Y: 11 Z: 0
RANK: 0Before Norm TUPLE:  X: 14 Y: 11 Z: 0
RANK: 0Before Velocity:  X: 15 Y: 11 Z: 0
RANK: 0Before Vorticity :  X: 15 Y: 11 Z: 0
RANK: 0Before Norm:  X: 15 Y: 11 Z: 0
RANK: 0Before Velocity TUPLE:  X: 15 Y: 11 Z: 0
RANK: 0Before Vorticity TUPLE:  X: 15 Y: 11 Z: 0
RANK: 0Before Norm TUPLE:  X: 15 Y: 11 Z: 0
RANK: 0Before Velocity:  X: 16 Y: 11 Z: 0
RANK: 0Before Vorticity :  X: 16 Y: 11 Z: 0
RANK: 0Before Norm:  X: 16 Y: 11 Z: 0
RANK: 0Before Velocity TUPLE:  X: 16 Y: 11 Z: 0
RANK: 0Before Vorticity TUPLE:  X: 16 Y: 11 Z: 0
RANK: 0Before Norm TUPLE:  X: 16 Y: 11 Z: 0
RANK: 0Before Velocity:  X: 17 Y: 11 Z: 0
RANK: 0Before Vorticity :  X: 17 Y: 11 Z: 0
RANK: 0Before Norm:  X: 17 Y: 11 Z: 0
RANK: 0Before Velocity TUPLE:  X: 17 Y: 11 Z: 0
RANK: 0Before Vorticity TUPLE:  X: 17 Y: 11 Z: 0
RANK: 0Before Norm TUPLE:  X: 17 Y: 11 Z: 0
RANK: 0Before Velocity:  X: 18 Y: 11 Z: 0
RANK: 0Before Vorticity :  X: 18 Y: 11 Z: 0
RANK: 0Before Norm:  X: 18 Y: 11 Z: 0
RANK: 0Before Velocity TUPLE:  X: 18 Y: 11 Z: 0
RANK: 0Before Vorticity TUPLE:  X: 18 Y: 11 Z: 0
RANK: 0Before Norm TUPLE:  X: 18 Y: 11 Z: 0
RANK: 0Before Velocity:  X: 19 Y: 11 Z: 0
RANK: 0Before Vorticity :  X: 19 Y: 11 Z: 0
RANK: 0Before Norm:  X: 19 Y: 11 Z: 0
RANK: 0Before Velocity TUPLE:  X: 19 Y: 11 Z: 0
RANK: 0Before Vorticity TUPLE:  X: 19 Y: 11 Z: 0
RANK: 0Before Norm TUPLE:  X: 19 Y: 11 Z: 0
RANK: 0Before Velocity:  X: 20 Y: 11 Z: 0
RANK: 0Before Vorticity :  X: 20 Y: 11 Z: 0
RANK: 0Before Norm:  X: 20 Y: 11 Z: 0
RANK: 0Before Velocity TUPLE:  X: 20 Y: 11 Z: 0
RANK: 0Before Vorticity TUPLE:  X: 20 Y: 11 Z: 0
RANK: 0Before Norm TUPLE:  X: 20 Y: 11 Z: 0
RANK: 0Before Velocity:  X: 0 Y: 12 Z: 0
RANK: 0Before Vorticity :  X: 0 Y: 12 Z: 0
RANK: 0Before Norm:  X: 0 Y: 12 Z: 0
RANK: 0Before Velocity TUPLE:  X: 0 Y: 12 Z: 0
RANK: 0Before Vorticity TUPLE:  X: 0 Y: 12 Z: 0
RANK: 0Before Norm TUPLE:  X: 0 Y: 12 Z: 0
RANK: 0Before Velocity:  X: 1 Y: 12 Z: 0
RANK: 0Before Vorticity :  X: 1 Y: 12 Z: 0
RANK: 0Before Norm:  X: 1 Y: 12 Z: 0
RANK: 0Before Velocity TUPLE:  X: 1 Y: 12 Z: 0
RANK: 0Before Vorticity TUPLE:  X: 1 Y: 12 Z: 0
RANK: 0Before Norm TUPLE:  X: 1 Y: 12 Z: 0
RANK: 0Before Velocity:  X: 2 Y: 12 Z: 0
RANK: 0Before Vorticity :  X: 2 Y: 12 Z: 0
RANK: 0Before Norm:  X: 2 Y: 12 Z: 0
RANK: 0Before Velocity TUPLE:  X: 2 Y: 12 Z: 0
RANK: 0Before Vorticity TUPLE:  X: 2 Y: 12 Z: 0
RANK: 0Before Norm TUPLE:  X: 2 Y: 12 Z: 0
RANK: 0Before Velocity:  X: 3 Y: 12 Z: 0
RANK: 0Before Vorticity :  X: 3 Y: 12 Z: 0
RANK: 0Before Norm:  X: 3 Y: 12 Z: 0
RANK: 0Before Velocity TUPLE:  X: 3 Y: 12 Z: 0
RANK: 0Before Vorticity TUPLE:  X: 3 Y: 12 Z: 0
RANK: 0Before Norm TUPLE:  X: 3 Y: 12 Z: 0
RANK: 0Before Velocity:  X: 4 Y: 12 Z: 0
RANK: 0Before Vorticity :  X: 4 Y: 12 Z: 0
RANK: 0Before Norm:  X: 4 Y: 12 Z: 0
RANK: 0Before Velocity TUPLE:  X: 4 Y: 12 Z: 0
RANK: 0Before Vorticity TUPLE:  X: 4 Y: 12 Z: 0
RANK: 0Before Norm TUPLE:  X: 4 Y: 12 Z: 0
RANK: 0Before Velocity:  X: 5 Y: 12 Z: 0
RANK: 0Before Vorticity :  X: 5 Y: 12 Z: 0
RANK: 0Before Norm:  X: 5 Y: 12 Z: 0
RANK: 0Before Velocity TUPLE:  X: 5 Y: 12 Z: 0
RANK: 0Before Vorticity TUPLE:  X: 5 Y: 12 Z: 0
RANK: 0Before Norm TUPLE:  X: 5 Y: 12 Z: 0
RANK: 0Before Velocity:  X: 6 Y: 12 Z: 0
RANK: 0Before Vorticity :  X: 6 Y: 12 Z: 0
RANK: 0Before Norm:  X: 6 Y: 12 Z: 0
RANK: 0Before Velocity TUPLE:  X: 6 Y: 12 Z: 0
RANK: 0Before Vorticity TUPLE:  X: 6 Y: 12 Z: 0
RANK: 0Before Norm TUPLE:  X: 6 Y: 12 Z: 0
RANK: 0Before Velocity:  X: 7 Y: 12 Z: 0
RANK: 0Before Vorticity :  X: 7 Y: 12 Z: 0
RANK: 0Before Norm:  X: 7 Y: 12 Z: 0
RANK: 0Before Velocity TUPLE:  X: 7 Y: 12 Z: 0
RANK: 0Before Vorticity TUPLE:  X: 7 Y: 12 Z: 0
RANK: 0Before Norm TUPLE:  X: 7 Y: 12 Z: 0
RANK: 0Before Velocity:  X: 8 Y: 12 Z: 0
RANK: 0Before Vorticity :  X: 8 Y: 12 Z: 0
RANK: 0Before Norm:  X: 8 Y: 12 Z: 0
RANK: 0Before Velocity TUPLE:  X: 8 Y: 12 Z: 0
RANK: 0Before Vorticity TUPLE:  X: 8 Y: 12 Z: 0
RANK: 0Before Norm TUPLE:  X: 8 Y: 12 Z: 0
RANK: 0Before Velocity:  X: 9 Y: 12 Z: 0
RANK: 0Before Vorticity :  X: 9 Y: 12 Z: 0
RANK: 0Before Norm:  X: 9 Y: 12 Z: 0
RANK: 0Before Velocity TUPLE:  X: 9 Y: 12 Z: 0
RANK: 0Before Vorticity TUPLE:  X: 9 Y: 12 Z: 0
RANK: 0Before Norm TUPLE:  X: 9 Y: 12 Z: 0
RANK: 0Before Velocity:  X: 10 Y: 12 Z: 0
RANK: 0Before Vorticity :  X: 10 Y: 12 Z: 0
RANK: 0Before Norm:  X: 10 Y: 12 Z: 0
RANK: 0Before Velocity TUPLE:  X: 10 Y: 12 Z: 0
RANK: 0Before Vorticity TUPLE:  X: 10 Y: 12 Z: 0
RANK: 0Before Norm TUPLE:  X: 10 Y: 12 Z: 0
RANK: 0Before Velocity:  X: 11 Y: 12 Z: 0
RANK: 0Before Vorticity :  X: 11 Y: 12 Z: 0
RANK: 0Before Norm:  X: 11 Y: 12 Z: 0
RANK: 0Before Velocity TUPLE:  X: 11 Y: 12 Z: 0
RANK: 0Before Vorticity TUPLE:  X: 11 Y: 12 Z: 0
RANK: 0Before Norm TUPLE:  X: 11 Y: 12 Z: 0
RANK: 0Before Velocity:  X: 12 Y: 12 Z: 0
RANK: 0Before Vorticity :  X: 12 Y: 12 Z: 0
RANK: 0Before Norm:  X: 12 Y: 12 Z: 0
RANK: 0Before Velocity TUPLE:  X: 12 Y: 12 Z: 0
RANK: 0Before Vorticity TUPLE:  X: 12 Y: 12 Z: 0
RANK: 0Before Norm TUPLE:  X: 12 Y: 12 Z: 0
RANK: 0Before Velocity:  X: 13 Y: 12 Z: 0
RANK: 0Before Vorticity :  X: 13 Y: 12 Z: 0
RANK: 0Before Norm:  X: 13 Y: 12 Z: 0
RANK: 0Before Velocity TUPLE:  X: 13 Y: 12 Z: 0
RANK: 0Before Vorticity TUPLE:  X: 13 Y: 12 Z: 0
RANK: 0Before Norm TUPLE:  X: 13 Y: 12 Z: 0
RANK: 0Before Velocity:  X: 14 Y: 12 Z: 0
RANK: 0Before Vorticity :  X: 14 Y: 12 Z: 0
RANK: 0Before Norm:  X: 14 Y: 12 Z: 0
RANK: 0Before Velocity TUPLE:  X: 14 Y: 12 Z: 0
RANK: 0Before Vorticity TUPLE:  X: 14 Y: 12 Z: 0
RANK: 0Before Norm TUPLE:  X: 14 Y: 12 Z: 0
RANK: 0Before Velocity:  X: 15 Y: 12 Z: 0
RANK: 0Before Vorticity :  X: 15 Y: 12 Z: 0
RANK: 0Before Norm:  X: 15 Y: 12 Z: 0
RANK: 0Before Velocity TUPLE:  X: 15 Y: 12 Z: 0
RANK: 0Before Vorticity TUPLE:  X: 15 Y: 12 Z: 0
RANK: 0Before Norm TUPLE:  X: 15 Y: 12 Z: 0
RANK: 0Before Velocity:  X: 16 Y: 12 Z: 0
RANK: 0Before Vorticity :  X: 16 Y: 12 Z: 0
RANK: 0Before Norm:  X: 16 Y: 12 Z: 0
RANK: 0Before Velocity TUPLE:  X: 16 Y: 12 Z: 0
RANK: 0Before Vorticity TUPLE:  X: 16 Y: 12 Z: 0
RANK: 0Before Norm TUPLE:  X: 16 Y: 12 Z: 0
RANK: 0Before Velocity:  X: 17 Y: 12 Z: 0
RANK: 0Before Vorticity :  X: 17 Y: 12 Z: 0
RANK: 0Before Norm:  X: 17 Y: 12 Z: 0
RANK: 0Before Velocity TUPLE:  X: 17 Y: 12 Z: 0
RANK: 0Before Vorticity TUPLE:  X: 17 Y: 12 Z: 0
RANK: 0Before Norm TUPLE:  X: 17 Y: 12 Z: 0
RANK: 0Before Velocity:  X: 18 Y: 12 Z: 0
RANK: 0Before Vorticity :  X: 18 Y: 12 Z: 0
RANK: 0Before Norm:  X: 18 Y: 12 Z: 0
RANK: 0Before Velocity TUPLE:  X: 18 Y: 12 Z: 0
RANK: 0Before Vorticity TUPLE:  X: 18 Y: 12 Z: 0
RANK: 0Before Norm TUPLE:  X: 18 Y: 12 Z: 0
RANK: 0Before Velocity:  X: 19 Y: 12 Z: 0
RANK: 0Before Vorticity :  X: 19 Y: 12 Z: 0
RANK: 0Before Norm:  X: 19 Y: 12 Z: 0
RANK: 0Before Velocity TUPLE:  X: 19 Y: 12 Z: 0
RANK: 0Before Vorticity TUPLE:  X: 19 Y: 12 Z: 0
RANK: 0Before Norm TUPLE:  X: 19 Y: 12 Z: 0
RANK: 0Before Velocity:  X: 20 Y: 12 Z: 0
RANK: 0Before Vorticity :  X: 20 Y: 12 Z: 0
RANK: 0Before Norm:  X: 20 Y: 12 Z: 0
RANK: 0Before Velocity TUPLE:  X: 20 Y: 12 Z: 0
RANK: 0Before Vorticity TUPLE:  X: 20 Y: 12 Z: 0
RANK: 0Before Norm TUPLE:  X: 20 Y: 12 Z: 0
RANK: 0Before Velocity:  X: 0 Y: 13 Z: 0
RANK: 0Before Vorticity :  X: 0 Y: 13 Z: 0
RANK: 0Before Norm:  X: 0 Y: 13 Z: 0
RANK: 0Before Velocity TUPLE:  X: 0 Y: 13 Z: 0
RANK: 0Before Vorticity TUPLE:  X: 0 Y: 13 Z: 0
RANK: 0Before Norm TUPLE:  X: 0 Y: 13 Z: 0
RANK: 0Before Velocity:  X: 1 Y: 13 Z: 0
RANK: 0Before Vorticity :  X: 1 Y: 13 Z: 0
RANK: 0Before Norm:  X: 1 Y: 13 Z: 0
RANK: 0Before Velocity TUPLE:  X: 1 Y: 13 Z: 0
RANK: 0Before Vorticity TUPLE:  X: 1 Y: 13 Z: 0
RANK: 0Before Norm TUPLE:  X: 1 Y: 13 Z: 0
RANK: 0Before Velocity:  X: 2 Y: 13 Z: 0
RANK: 0Before Vorticity :  X: 2 Y: 13 Z: 0
RANK: 0Before Norm:  X: 2 Y: 13 Z: 0
RANK: 0Before Velocity TUPLE:  X: 2 Y: 13 Z: 0
RANK: 0Before Vorticity TUPLE:  X: 2 Y: 13 Z: 0
RANK: 0Before Norm TUPLE:  X: 2 Y: 13 Z: 0
RANK: 0Before Velocity:  X: 3 Y: 13 Z: 0
RANK: 0Before Vorticity :  X: 3 Y: 13 Z: 0
RANK: 0Before Norm:  X: 3 Y: 13 Z: 0
RANK: 0Before Velocity TUPLE:  X: 3 Y: 13 Z: 0
RANK: 0Before Vorticity TUPLE:  X: 3 Y: 13 Z: 0
RANK: 0Before Norm TUPLE:  X: 3 Y: 13 Z: 0
RANK: 0Before Velocity:  X: 4 Y: 13 Z: 0
RANK: 0Before Vorticity :  X: 4 Y: 13 Z: 0
RANK: 0Before Norm:  X: 4 Y: 13 Z: 0
RANK: 0Before Velocity TUPLE:  X: 4 Y: 13 Z: 0
RANK: 0Before Vorticity TUPLE:  X: 4 Y: 13 Z: 0
RANK: 0Before Norm TUPLE:  X: 4 Y: 13 Z: 0
RANK: 0Before Velocity:  X: 5 Y: 13 Z: 0
RANK: 0Before Vorticity :  X: 5 Y: 13 Z: 0
RANK: 0Before Norm:  X: 5 Y: 13 Z: 0
RANK: 0Before Velocity TUPLE:  X: 5 Y: 13 Z: 0
RANK: 0Before Vorticity TUPLE:  X: 5 Y: 13 Z: 0
RANK: 0Before Norm TUPLE:  X: 5 Y: 13 Z: 0
RANK: 0Before Velocity:  X: 6 Y: 13 Z: 0
RANK: 0Before Vorticity :  X: 6 Y: 13 Z: 0
RANK: 0Before Norm:  X: 6 Y: 13 Z: 0
RANK: 0Before Velocity TUPLE:  X: 6 Y: 13 Z: 0
RANK: 0Before Vorticity TUPLE:  X: 6 Y: 13 Z: 0
RANK: 0Before Norm TUPLE:  X: 6 Y: 13 Z: 0
RANK: 0Before Velocity:  X: 7 Y: 13 Z: 0
RANK: 0Before Vorticity :  X: 7 Y: 13 Z: 0
RANK: 0Before Norm:  X: 7 Y: 13 Z: 0
RANK: 0Before Velocity TUPLE:  X: 7 Y: 13 Z: 0
RANK: 0Before Vorticity TUPLE:  X: 7 Y: 13 Z: 0
RANK: 0Before Norm TUPLE:  X: 7 Y: 13 Z: 0
RANK: 0Before Velocity:  X: 8 Y: 13 Z: 0
RANK: 0Before Vorticity :  X: 8 Y: 13 Z: 0
RANK: 0Before Norm:  X: 8 Y: 13 Z: 0
RANK: 0Before Velocity TUPLE:  X: 8 Y: 13 Z: 0
RANK: 0Before Vorticity TUPLE:  X: 8 Y: 13 Z: 0
RANK: 0Before Norm TUPLE:  X: 8 Y: 13 Z: 0
RANK: 0Before Velocity:  X: 9 Y: 13 Z: 0
RANK: 0Before Vorticity :  X: 9 Y: 13 Z: 0
RANK: 0Before Norm:  X: 9 Y: 13 Z: 0
RANK: 0Before Velocity TUPLE:  X: 9 Y: 13 Z: 0
RANK: 0Before Vorticity TUPLE:  X: 9 Y: 13 Z: 0
RANK: 0Before Norm TUPLE:  X: 9 Y: 13 Z: 0
RANK: 0Before Velocity:  X: 10 Y: 13 Z: 0
RANK: 0Before Vorticity :  X: 10 Y: 13 Z: 0
RANK: 0Before Norm:  X: 10 Y: 13 Z: 0
RANK: 0Before Velocity TUPLE:  X: 10 Y: 13 Z: 0
RANK: 0Before Vorticity TUPLE:  X: 10 Y: 13 Z: 0
RANK: 0Before Norm TUPLE:  X: 10 Y: 13 Z: 0
RANK: 0Before Velocity:  X: 11 Y: 13 Z: 0
RANK: 0Before Vorticity :  X: 11 Y: 13 Z: 0
RANK: 0Before Norm:  X: 11 Y: 13 Z: 0
RANK: 0Before Velocity TUPLE:  X: 11 Y: 13 Z: 0
RANK: 0Before Vorticity TUPLE:  X: 11 Y: 13 Z: 0
RANK: 0Before Norm TUPLE:  X: 11 Y: 13 Z: 0
RANK: 0Before Velocity:  X: 12 Y: 13 Z: 0
RANK: 0Before Vorticity :  X: 12 Y: 13 Z: 0
RANK: 0Before Norm:  X: 12 Y: 13 Z: 0
RANK: 0Before Velocity TUPLE:  X: 12 Y: 13 Z: 0
RANK: 0Before Vorticity TUPLE:  X: 12 Y: 13 Z: 0
RANK: 0Before Norm TUPLE:  X: 12 Y: 13 Z: 0
RANK: 0Before Velocity:  X: 13 Y: 13 Z: 0
RANK: 0Before Vorticity :  X: 13 Y: 13 Z: 0
RANK: 0Before Norm:  X: 13 Y: 13 Z: 0
RANK: 0Before Velocity TUPLE:  X: 13 Y: 13 Z: 0
RANK: 0Before Vorticity TUPLE:  X: 13 Y: 13 Z: 0
RANK: 0Before Norm TUPLE:  X: 13 Y: 13 Z: 0
RANK: 0Before Velocity:  X: 14 Y: 13 Z: 0
RANK: 0Before Vorticity :  X: 14 Y: 13 Z: 0
RANK: 0Before Norm:  X: 14 Y: 13 Z: 0
RANK: 0Before Velocity TUPLE:  X: 14 Y: 13 Z: 0
RANK: 0Before Vorticity TUPLE:  X: 14 Y: 13 Z: 0
RANK: 0Before Norm TUPLE:  X: 14 Y: 13 Z: 0
RANK: 0Before Velocity:  X: 15 Y: 13 Z: 0
RANK: 0Before Vorticity :  X: 15 Y: 13 Z: 0
RANK: 0Before Norm:  X: 15 Y: 13 Z: 0
RANK: 0Before Velocity TUPLE:  X: 15 Y: 13 Z: 0
RANK: 0Before Vorticity TUPLE:  X: 15 Y: 13 Z: 0
RANK: 0Before Norm TUPLE:  X: 15 Y: 13 Z: 0
RANK: 0Before Velocity:  X: 16 Y: 13 Z: 0
RANK: 0Before Vorticity :  X: 16 Y: 13 Z: 0
RANK: 0Before Norm:  X: 16 Y: 13 Z: 0
RANK: 0Before Velocity TUPLE:  X: 16 Y: 13 Z: 0
RANK: 0Before Vorticity TUPLE:  X: 16 Y: 13 Z: 0
RANK: 0Before Norm TUPLE:  X: 16 Y: 13 Z: 0
RANK: 0Before Velocity:  X: 17 Y: 13 Z: 0
RANK: 0Before Vorticity :  X: 17 Y: 13 Z: 0
RANK: 0Before Norm:  X: 17 Y: 13 Z: 0
RANK: 0Before Velocity TUPLE:  X: 17 Y: 13 Z: 0
RANK: 0Before Vorticity TUPLE:  X: 17 Y: 13 Z: 0
RANK: 0Before Norm TUPLE:  X: 17 Y: 13 Z: 0
RANK: 0Before Velocity:  X: 18 Y: 13 Z: 0
RANK: 0Before Vorticity :  X: 18 Y: 13 Z: 0
RANK: 0Before Norm:  X: 18 Y: 13 Z: 0
RANK: 0Before Velocity TUPLE:  X: 18 Y: 13 Z: 0
RANK: 0Before Vorticity TUPLE:  X: 18 Y: 13 Z: 0
RANK: 0Before Norm TUPLE:  X: 18 Y: 13 Z: 0
RANK: 0Before Velocity:  X: 19 Y: 13 Z: 0
RANK: 0Before Vorticity :  X: 19 Y: 13 Z: 0
RANK: 0Before Norm:  X: 19 Y: 13 Z: 0
RANK: 0Before Velocity TUPLE:  X: 19 Y: 13 Z: 0
RANK: 0Before Vorticity TUPLE:  X: 19 Y: 13 Z: 0
RANK: 0Before Norm TUPLE:  X: 19 Y: 13 Z: 0
RANK: 0Before Velocity:  X: 20 Y: 13 Z: 0
RANK: 0Before Vorticity :  X: 20 Y: 13 Z: 0
RANK: 0Before Norm:  X: 20 Y: 13 Z: 0
RANK: 0Before Velocity TUPLE:  X: 20 Y: 13 Z: 0
RANK: 0Before Vorticity TUPLE:  X: 20 Y: 13 Z: 0
RANK: 0Before Norm TUPLE:  X: 20 Y: 13 Z: 0
RANK: 0Before Velocity:  X: 0 Y: 14 Z: 0
RANK: 0Before Vorticity :  X: 0 Y: 14 Z: 0
RANK: 0Before Norm:  X: 0 Y: 14 Z: 0
RANK: 0Before Velocity TUPLE:  X: 0 Y: 14 Z: 0
RANK: 0Before Vorticity TUPLE:  X: 0 Y: 14 Z: 0
RANK: 0Before Norm TUPLE:  X: 0 Y: 14 Z: 0
RANK: 0Before Velocity:  X: 1 Y: 14 Z: 0
RANK: 0Before Vorticity :  X: 1 Y: 14 Z: 0
RANK: 0Before Norm:  X: 1 Y: 14 Z: 0
RANK: 0Before Velocity TUPLE:  X: 1 Y: 14 Z: 0
RANK: 0Before Vorticity TUPLE:  X: 1 Y: 14 Z: 0
RANK: 0Before Norm TUPLE:  X: 1 Y: 14 Z: 0
RANK: 0Before Velocity:  X: 2 Y: 14 Z: 0
RANK: 0Before Vorticity :  X: 2 Y: 14 Z: 0
RANK: 0Before Norm:  X: 2 Y: 14 Z: 0
RANK: 0Before Velocity TUPLE:  X: 2 Y: 14 Z: 0
RANK: 0Before Vorticity TUPLE:  X: 2 Y: 14 Z: 0
RANK: 0Before Norm TUPLE:  X: 2 Y: 14 Z: 0
RANK: 0Before Velocity:  X: 3 Y: 14 Z: 0
[...]
RANK: 0Before Vorticity :  X: 8 Y: 17 Z: 9
RANK: 0Before Norm:  X: 8 Y: 17 Z: 9
RANK: 0Before Velocity TUPLE:  X: 8 Y: 17 Z: 9
RANK: 0Before Vorticity TUPLE:  X: 8 Y: 17 Z: 9
RANK: 0Before Norm TUPLE:  X: 8 Y: 17 Z: 9
RANK: 0Before Velocity:  X: 9 Y: 17 Z: 9
RANK: 0Before Vorticity :  X: 9 Y: 17 Z: 9
RANK: 0Before Norm:  X: 9 Y: 17 Z: 9
RANK: 0Before Velocity TUPLE:  X: 9 Y: 17 Z: 9
RANK: 0Before Vorticity TUPLE:  X: 9 Y: 17 Z: 9
RANK: 0Before Norm TUPLE:  X: 9 Y: 17 Z: 9
RANK: 0Before Velocity:  X: 10 Y: 17 Z: 9
RANK: 0Before Vorticity :  X: 10 Y: 17 Z: 9
RANK: 0Before Norm:  X: 10 Y: 17 Z: 9
RANK: 0Before Velocity TUPLE:  X: 10 Y: 17 Z: 9
RANK: 0Before Vorticity TUPLE:  X: 10 Y: 17 Z: 9
RANK: 0Before Norm TUPLE:  X: 10 Y: 17 Z: 9
RANK: 0Before Velocity:  X: 11 Y: 17 Z: 9
RANK: 0Before Vorticity :  X: 11 Y: 17 Z: 9
RANK: 0Before Norm:  X: 11 Y: 17 Z: 9
RANK: 0Before Velocity TUPLE:  X: 11 Y: 17 Z: 9
RANK: 0Before Vorticity TUPLE:  X: 11 Y: 17 Z: 9
RANK: 0Before Norm TUPLE:  X: 11 Y: 17 Z: 9
RANK: 0Before Velocity:  X: 12 Y: 17 Z: 9
RANK: 0Before Vorticity :  X: 12 Y: 17 Z: 9
RANK: 0Before Norm:  X: 12 Y: 17 Z: 9
RANK: 0Before Velocity TUPLE:  X: 12 Y: 17 Z: 9
RANK: 0Before Vorticity TUPLE:  X: 12 Y: 17 Z: 9
RANK: 0Before Norm TUPLE:  X: 12 Y: 17 Z: 9
RANK: 0Before Velocity:  X: 13 Y: 17 Z: 9
RANK: 0Before Vorticity :  X: 13 Y: 17 Z: 9
RANK: 0Before Norm:  X: 13 Y: 17 Z: 9
RANK: 0Before Velocity TUPLE:  X: 13 Y: 17 Z: 9
RANK: 0Before Vorticity TUPLE:  X: 13 Y: 17 Z: 9
RANK: 0Before Norm TUPLE:  X: 13 Y: 17 Z: 9
RANK: 0Before Velocity:  X: 14 Y: 17 Z: 9
RANK: 0Before Vorticity :  X: 14 Y: 17 Z: 9
RANK: 0Before Norm:  X: 14 Y: 17 Z: 9
RANK: 0Before Velocity TUPLE:  X: 14 Y: 17 Z: 9
RANK: 0Before Vorticity TUPLE:  X: 14 Y: 17 Z: 9
RANK: 0Before Norm TUPLE:  X: 14 Y: 17 Z: 9
RANK: 0Before Velocity:  X: 15 Y: 17 Z: 9
RANK: 0Before Vorticity :  X: 15 Y: 17 Z: 9
RANK: 0Before Norm:  X: 15 Y: 17 Z: 9
RANK: 0Before Velocity TUPLE:  X: 15 Y: 17 Z: 9
RANK: 0Before Vorticity TUPLE:  X: 15 Y: 17 Z: 9
RANK: 0Before Norm TUPLE:  X: 15 Y: 17 Z: 9
RANK: 0Before Velocity:  X: 16 Y: 17 Z: 9
RANK: 0Before Vorticity :  X: 16 Y: 17 Z: 9
RANK: 0Before Norm:  X: 16 Y: 17 Z: 9
RANK: 0Before Velocity TUPLE:  X: 16 Y: 17 Z: 9
RANK: 0Before Vorticity TUPLE:  X: 16 Y: 17 Z: 9
RANK: 0Before Norm TUPLE:  X: 16 Y: 17 Z: 9
RANK: 0Before Velocity:  X: 17 Y: 17 Z: 9
RANK: 0Before Vorticity :  X: 17 Y: 17 Z: 9
RANK: 0Before Norm:  X: 17 Y: 17 Z: 9
RANK: 0Before Velocity TUPLE:  X: 17 Y: 17 Z: 9
RANK: 0Before Vorticity TUPLE:  X: 17 Y: 17 Z: 9
RANK: 0Before Norm TUPLE:  X: 17 Y: 17 Z: 9
RANK: 0Before Velocity:  X: 18 Y: 17 Z: 9
RANK: 0Before Vorticity :  X: 18 Y: 17 Z: 9
RANK: 0Before Norm:  X: 18 Y: 17 Z: 9
RANK: 0Before Velocity TUPLE:  X: 18 Y: 17 Z: 9
RANK: 0Before Vorticity TUPLE:  X: 18 Y: 17 Z: 9
RANK: 0Before Norm TUPLE:  X: 18 Y: 17 Z: 9
RANK: 0Before Velocity:  X: 19 Y: 17 Z: 9
RANK: 0Before Vorticity :  X: 19 Y: 17 Z: 9
RANK: 0Before Norm:  X: 19 Y: 17 Z: 9
RANK: 0Before Velocity TUPLE:  X: 19 Y: 17 Z: 9
RANK: 0Before Vorticity TUPLE:  X: 19 Y: 17 Z: 9
RANK: 0Before Norm TUPLE:  X: 19 Y: 17 Z: 9
RANK: 0Before Velocity:  X: 20 Y: 17 Z: 9
RANK: 0Before Vorticity :  X: 20 Y: 17 Z: 9
RANK: 0Before Norm:  X: 20 Y: 17 Z: 9
RANK: 0Before Velocity TUPLE:  X: 20 Y: 17 Z: 9
RANK: 0Before Vorticity TUPLE:  X: 20 Y: 17 Z: 9
RANK: 0Before Norm TUPLE:  X: 20 Y: 17 Z: 9
RANK: 0Before Velocity:  X: 0 Y: 18 Z: 9
RANK: 0Before Vorticity :  X: 0 Y: 18 Z: 9
RANK: 0Before Norm:  X: 0 Y: 18 Z: 9
RANK: 0Before Velocity TUPLE:  X: 0 Y: 18 Z: 9
RANK: 0Before Vorticity TUPLE:  X: 0 Y: 18 Z: 9
RANK: 0Before Norm TUPLE:  X: 0 Y: 18 Z: 9
RANK: 0Before Velocity:  X: 1 Y: 18 Z: 9
RANK: 0Before Vorticity :  X: 1 Y: 18 Z: 9
RANK: 0Before Norm:  X: 1 Y: 18 Z: 9
RANK: 0Before Velocity TUPLE:  X: 1 Y: 18 Z: 9
RANK: 0Before Vorticity TUPLE:  X: 1 Y: 18 Z: 9
RANK: 0Before Norm TUPLE:  X: 1 Y: 18 Z: 9
RANK: 0Before Velocity:  X: 2 Y: 18 Z: 9
RANK: 0Before Vorticity :  X: 2 Y: 18 Z: 9
RANK: 0Before Norm:  X: 2 Y: 18 Z: 9
RANK: 0Before Velocity TUPLE:  X: 2 Y: 18 Z: 9
RANK: 0Before Vorticity TUPLE:  X: 2 Y: 18 Z: 9
RANK: 0Before Norm TUPLE:  X: 2 Y: 18 Z: 9
RANK: 0Before Velocity:  X: 3 Y: 18 Z: 9
RANK: 0Before Vorticity :  X: 3 Y: 18 Z: 9
RANK: 0Before Norm:  X: 3 Y: 18 Z: 9
RANK: 0Before Velocity TUPLE:  X: 3 Y: 18 Z: 9
RANK: 0Before Vorticity TUPLE:  X: 3 Y: 18 Z: 9
RANK: 0Before Norm TUPLE:  X: 3 Y: 18 Z: 9
RANK: 0Before Velocity:  X: 4 Y: 18 Z: 9
RANK: 0Before Vorticity :  X: 4 Y: 18 Z: 9
RANK: 0Before Norm:  X: 4 Y: 18 Z: 9
RANK: 0Before Velocity TUPLE:  X: 4 Y: 18 Z: 9
RANK: 0Before Vorticity TUPLE:  X: 4 Y: 18 Z: 9
RANK: 0Before Norm TUPLE:  X: 4 Y: 18 Z: 9
RANK: 0Before Velocity:  X: 5 Y: 18 Z: 9
RANK: 0Before Vorticity :  X: 5 Y: 18 Z: 9
RANK: 0Before Norm:  X: 5 Y: 18 Z: 9
RANK: 0Before Velocity TUPLE:  X: 5 Y: 18 Z: 9
RANK: 0Before Vorticity TUPLE:  X: 5 Y: 18 Z: 9
RANK: 0Before Norm TUPLE:  X: 5 Y: 18 Z: 9
RANK: 0Before Velocity:  X: 6 Y: 18 Z: 9
RANK: 0Before Vorticity :  X: 6 Y: 18 Z: 9
RANK: 0Before Norm:  X: 6 Y: 18 Z: 9
RANK: 0Before Velocity TUPLE:  X: 6 Y: 18 Z: 9
RANK: 0Before Vorticity TUPLE:  X: 6 Y: 18 Z: 9
RANK: 0Before Norm TUPLE:  X: 6 Y: 18 Z: 9
RANK: 0Before Velocity:  X: 7 Y: 18 Z: 9
RANK: 0Before Vorticity :  X: 7 Y: 18 Z: 9
RANK: 0Before Norm:  X: 7 Y: 18 Z: 9
RANK: 0Before Velocity TUPLE:  X: 7 Y: 18 Z: 9
RANK: 0Before Vorticity TUPLE:  X: 7 Y: 18 Z: 9
RANK: 0Before Norm TUPLE:  X: 7 Y: 18 Z: 9
RANK: 0Before Velocity:  X: 8 Y: 18 Z: 9
RANK: 0Before Vorticity :  X: 8 Y: 18 Z: 9
RANK: 0Before Norm:  X: 8 Y: 18 Z: 9
RANK: 0Before Velocity TUPLE:  X: 8 Y: 18 Z: 9
RANK: 0Before Vorticity TUPLE:  X: 8 Y: 18 Z: 9
RANK: 0Before Norm TUPLE:  X: 8 Y: 18 Z: 9
RANK: 0Before Velocity:  X: 9 Y: 18 Z: 9
RANK: 0Before Vorticity :  X: 9 Y: 18 Z: 9
RANK: 0Before Norm:  X: 9 Y: 18 Z: 9
RANK: 0Before Velocity TUPLE:  X: 9 Y: 18 Z: 9
RANK: 0Before Vorticity TUPLE:  X: 9 Y: 18 Z: 9
RANK: 0Before Norm TUPLE:  X: 9 Y: 18 Z: 9
RANK: 0Before Velocity:  X: 10 Y: 18 Z: 9
RANK: 0Before Vorticity :  X: 10 Y: 18 Z: 9
RANK: 0Before Norm:  X: 10 Y: 18 Z: 9
RANK: 0Before Velocity TUPLE:  X: 10 Y: 18 Z: 9
RANK: 0Before Vorticity TUPLE:  X: 10 Y: 18 Z: 9
RANK: 0Before Norm TUPLE:  X: 10 Y: 18 Z: 9
RANK: 0Before Velocity:  X: 11 Y: 18 Z: 9
RANK: 0Before Vorticity :  X: 11 Y: 18 Z: 9
RANK: 0Before Norm:  X: 11 Y: 18 Z: 9
RANK: 0Before Velocity TUPLE:  X: 11 Y: 18 Z: 9
RANK: 0Before Vorticity TUPLE:  X: 11 Y: 18 Z: 9
RANK: 0Before Norm TUPLE:  X: 11 Y: 18 Z: 9
RANK: 0Before Velocity:  X: 12 Y: 18 Z: 9
RANK: 0Before Vorticity :  X: 12 Y: 18 Z: 9
RANK: 0Before Norm:  X: 12 Y: 18 Z: 9
RANK: 0Before Velocity TUPLE:  X: 12 Y: 18 Z: 9
RANK: 0Before Vorticity TUPLE:  X: 12 Y: 18 Z: 9
RANK: 0Before Norm TUPLE:  X: 12 Y: 18 Z: 9
RANK: 0Before Velocity:  X: 13 Y: 18 Z: 9
RANK: 0Before Vorticity :  X: 13 Y: 18 Z: 9
RANK: 0Before Norm:  X: 13 Y: 18 Z: 9
RANK: 0Before Velocity TUPLE:  X: 13 Y: 18 Z: 9
RANK: 0Before Vorticity TUPLE:  X: 13 Y: 18 Z: 9
RANK: 0Before Norm TUPLE:  X: 13 Y: 18 Z: 9
RANK: 0Before Velocity:  X: 14 Y: 18 Z: 9
RANK: 0Before Vorticity :  X: 14 Y: 18 Z: 9
RANK: 0Before Norm:  X: 14 Y: 18 Z: 9
RANK: 0Before Velocity TUPLE:  X: 14 Y: 18 Z: 9
RANK: 0Before Vorticity TUPLE:  X: 14 Y: 18 Z: 9
RANK: 0Before Norm TUPLE:  X: 14 Y: 18 Z: 9
RANK: 0Before Velocity:  X: 15 Y: 18 Z: 9
RANK: 0Before Vorticity :  X: 15 Y: 18 Z: 9
RANK: 0Before Norm:  X: 15 Y: 18 Z: 9
RANK: 0Before Velocity TUPLE:  X: 15 Y: 18 Z: 9
RANK: 0Before Vorticity TUPLE:  X: 15 Y: 18 Z: 9
RANK: 0Before Norm TUPLE:  X: 15 Y: 18 Z: 9
RANK: 0Before Velocity:  X: 16 Y: 18 Z: 9
RANK: 0Before Vorticity :  X: 16 Y: 18 Z: 9
RANK: 0Before Norm:  X: 16 Y: 18 Z: 9
RANK: 0Before Velocity TUPLE:  X: 16 Y: 18 Z: 9
RANK: 0Before Vorticity TUPLE:  X: 16 Y: 18 Z: 9
RANK: 0Before Norm TUPLE:  X: 16 Y: 18 Z: 9
RANK: 0Before Velocity:  X: 17 Y: 18 Z: 9
RANK: 0Before Vorticity :  X: 17 Y: 18 Z: 9
RANK: 0Before Norm:  X: 17 Y: 18 Z: 9
RANK: 0Before Velocity TUPLE:  X: 17 Y: 18 Z: 9
RANK: 0Before Vorticity TUPLE:  X: 17 Y: 18 Z: 9
RANK: 0Before Norm TUPLE:  X: 17 Y: 18 Z: 9
RANK: 0Before Velocity:  X: 18 Y: 18 Z: 9
RANK: 0Before Vorticity :  X: 18 Y: 18 Z: 9
RANK: 0Before Norm:  X: 18 Y: 18 Z: 9
RANK: 0Before Velocity TUPLE:  X: 18 Y: 18 Z: 9
RANK: 0Before Vorticity TUPLE:  X: 18 Y: 18 Z: 9
RANK: 0Before Norm TUPLE:  X: 18 Y: 18 Z: 9
RANK: 0Before Velocity:  X: 19 Y: 18 Z: 9
RANK: 0Before Vorticity :  X: 19 Y: 18 Z: 9
RANK: 0Before Norm:  X: 19 Y: 18 Z: 9
RANK: 0Before Velocity TUPLE:  X: 19 Y: 18 Z: 9
RANK: 0Before Vorticity TUPLE:  X: 19 Y: 18 Z: 9
RANK: 0Before Norm TUPLE:  X: 19 Y: 18 Z: 9
RANK: 0Before Velocity:  X: 20 Y: 18 Z: 9
RANK: 0Before Vorticity :  X: 20 Y: 18 Z: 9
RANK: 0Before Norm:  X: 20 Y: 18 Z: 9
RANK: 0Before Velocity TUPLE:  X: 20 Y: 18 Z: 9
RANK: 0Before Vorticity TUPLE:  X: 20 Y: 18 Z: 9
RANK: 0Before Norm TUPLE:  X: 20 Y: 18 Z: 9
RANK: 0Before Velocity:  X: 0 Y: 19 Z: 9
RANK: 0Before Vorticity :  X: 0 Y: 19 Z: 9
RANK: 0Before Norm:  X: 0 Y: 19 Z: 9
RANK: 0Before Velocity TUPLE:  X: 0 Y: 19 Z: 9
RANK: 0Before Vorticity TUPLE:  X: 0 Y: 19 Z: 9
RANK: 0Before Norm TUPLE:  X: 0 Y: 19 Z: 9
RANK: 0Before Velocity:  X: 1 Y: 19 Z: 9
RANK: 0Before Vorticity :  X: 1 Y: 19 Z: 9
RANK: 0Before Norm:  X: 1 Y: 19 Z: 9
RANK: 0Before Velocity TUPLE:  X: 1 Y: 19 Z: 9
RANK: 0Before Vorticity TUPLE:  X: 1 Y: 19 Z: 9
RANK: 0Before Norm TUPLE:  X: 1 Y: 19 Z: 9
RANK: 0Before Velocity:  X: 2 Y: 19 Z: 9
RANK: 0Before Vorticity :  X: 2 Y: 19 Z: 9
RANK: 0Before Norm:  X: 2 Y: 19 Z: 9
RANK: 0Before Velocity TUPLE:  X: 2 Y: 19 Z: 9
RANK: 0Before Vorticity TUPLE:  X: 2 Y: 19 Z: 9
RANK: 0Before Norm TUPLE:  X: 2 Y: 19 Z: 9
RANK: 0Before Velocity:  X: 3 Y: 19 Z: 9
RANK: 0Before Vorticity :  X: 3 Y: 19 Z: 9
RANK: 0Before Norm:  X: 3 Y: 19 Z: 9
RANK: 0Before Velocity TUPLE:  X: 3 Y: 19 Z: 9
RANK: 0Before Vorticity TUPLE:  X: 3 Y: 19 Z: 9
RANK: 0Before Norm TUPLE:  X: 3 Y: 19 Z: 9
RANK: 0Before Velocity:  X: 4 Y: 19 Z: 9
RANK: 0Before Vorticity :  X: 4 Y: 19 Z: 9
RANK: 0Before Norm:  X: 4 Y: 19 Z: 9
RANK: 0Before Velocity TUPLE:  X: 4 Y: 19 Z: 9
RANK: 0Before Vorticity TUPLE:  X: 4 Y: 19 Z: 9
RANK: 0Before Norm TUPLE:  X: 4 Y: 19 Z: 9
RANK: 0Before Velocity:  X: 5 Y: 19 Z: 9
RANK: 0Before Vorticity :  X: 5 Y: 19 Z: 9
RANK: 0Before Norm:  X: 5 Y: 19 Z: 9
RANK: 0Before Velocity TUPLE:  X: 5 Y: 19 Z: 9
RANK: 0Before Vorticity TUPLE:  X: 5 Y: 19 Z: 9
RANK: 0Before Norm TUPLE:  X: 5 Y: 19 Z: 9
RANK: 0Before Velocity:  X: 6 Y: 19 Z: 9
RANK: 0Before Vorticity :  X: 6 Y: 19 Z: 9
RANK: 0Before Norm:  X: 6 Y: 19 Z: 9
RANK: 0Before Velocity TUPLE:  X: 6 Y: 19 Z: 9
RANK: 0Before Vorticity TUPLE:  X: 6 Y: 19 Z: 9
RANK: 0Before Norm TUPLE:  X: 6 Y: 19 Z: 9
RANK: 0Before Velocity:  X: 7 Y: 19 Z: 9
RANK: 0Before Vorticity :  X: 7 Y: 19 Z: 9
RANK: 0Before Norm:  X: 7 Y: 19 Z: 9
RANK: 0Before Velocity TUPLE:  X: 7 Y: 19 Z: 9
RANK: 0Before Vorticity TUPLE:  X: 7 Y: 19 Z: 9
RANK: 0Before Norm TUPLE:  X: 7 Y: 19 Z: 9
RANK: 0Before Velocity:  X: 8 Y: 19 Z: 9
RANK: 0Before Vorticity :  X: 8 Y: 19 Z: 9
RANK: 0Before Norm:  X: 8 Y: 19 Z: 9
RANK: 0Before Velocity TUPLE:  X: 8 Y: 19 Z: 9
RANK: 0Before Vorticity TUPLE:  X: 8 Y: 19 Z: 9
RANK: 0Before Norm TUPLE:  X: 8 Y: 19 Z: 9
RANK: 0Before Velocity:  X: 9 Y: 19 Z: 9
RANK: 0Before Vorticity :  X: 9 Y: 19 Z: 9
RANK: 0Before Norm:  X: 9 Y: 19 Z: 9
RANK: 0Before Velocity TUPLE:  X: 9 Y: 19 Z: 9
RANK: 0Before Vorticity TUPLE:  X: 9 Y: 19 Z: 9
RANK: 0Before Norm TUPLE:  X: 9 Y: 19 Z: 9
RANK: 0Before Velocity:  X: 10 Y: 19 Z: 9
RANK: 0Before Vorticity :  X: 10 Y: 19 Z: 9
RANK: 0Before Norm:  X: 10 Y: 19 Z: 9
RANK: 0Before Velocity TUPLE:  X: 10 Y: 19 Z: 9
RANK: 0Before Vorticity TUPLE:  X: 10 Y: 19 Z: 9
RANK: 0Before Norm TUPLE:  X: 10 Y: 19 Z: 9
RANK: 0Before Velocity:  X: 11 Y: 19 Z: 9
RANK: 0Before Vorticity :  X: 11 Y: 19 Z: 9
RANK: 0Before Norm:  X: 11 Y: 19 Z: 9
RANK: 0Before Velocity TUPLE:  X: 11 Y: 19 Z: 9
RANK: 0Before Vorticity TUPLE:  X: 11 Y: 19 Z: 9
RANK: 0Before Norm TUPLE:  X: 11 Y: 19 Z: 9
RANK: 0Before Velocity:  X: 12 Y: 19 Z: 9
RANK: 0Before Vorticity :  X: 12 Y: 19 Z: 9
RANK: 0Before Norm:  X: 12 Y: 19 Z: 9
RANK: 0Before Velocity TUPLE:  X: 12 Y: 19 Z: 9
RANK: 0Before Vorticity TUPLE:  X: 12 Y: 19 Z: 9
RANK: 0Before Norm TUPLE:  X: 12 Y: 19 Z: 9
RANK: 0Before Velocity:  X: 13 Y: 19 Z: 9
RANK: 0Before Vorticity :  X: 13 Y: 19 Z: 9
RANK: 0Before Norm:  X: 13 Y: 19 Z: 9
RANK: 0Before Velocity TUPLE:  X: 13 Y: 19 Z: 9
RANK: 0Before Vorticity TUPLE:  X: 13 Y: 19 Z: 9
RANK: 0Before Norm TUPLE:  X: 13 Y: 19 Z: 9
RANK: 0Before Velocity:  X: 14 Y: 19 Z: 9
RANK: 0Before Vorticity :  X: 14 Y: 19 Z: 9
RANK: 0Before Norm:  X: 14 Y: 19 Z: 9
RANK: 0Before Velocity TUPLE:  X: 14 Y: 19 Z: 9
RANK: 0Before Vorticity TUPLE:  X: 14 Y: 19 Z: 9
RANK: 0Before Norm TUPLE:  X: 14 Y: 19 Z: 9
RANK: 0Before Velocity:  X: 15 Y: 19 Z: 9
RANK: 0Before Vorticity :  X: 15 Y: 19 Z: 9
RANK: 0Before Norm:  X: 15 Y: 19 Z: 9
RANK: 0Before Velocity TUPLE:  X: 15 Y: 19 Z: 9
RANK: 0Before Vorticity TUPLE:  X: 15 Y: 19 Z: 9
RANK: 0Before Norm TUPLE:  X: 15 Y: 19 Z: 9
RANK: 0Before Velocity:  X: 16 Y: 19 Z: 9
RANK: 0Before Vorticity :  X: 16 Y: 19 Z: 9
RANK: 0Before Norm:  X: 16 Y: 19 Z: 9
RANK: 0Before Velocity TUPLE:  X: 16 Y: 19 Z: 9
RANK: 0Before Vorticity TUPLE:  X: 16 Y: 19 Z: 9
RANK: 0Before Norm TUPLE:  X: 16 Y: 19 Z: 9
RANK: 0Before Velocity:  X: 17 Y: 19 Z: 9
RANK: 0Before Vorticity :  X: 17 Y: 19 Z: 9
RANK: 0Before Norm:  X: 17 Y: 19 Z: 9
RANK: 0Before Velocity TUPLE:  X: 17 Y: 19 Z: 9
RANK: 0Before Vorticity TUPLE:  X: 17 Y: 19 Z: 9
RANK: 0Before Norm TUPLE:  X: 17 Y: 19 Z: 9
RANK: 0Before Velocity:  X: 18 Y: 19 Z: 9
RANK: 0Before Vorticity :  X: 18 Y: 19 Z: 9
RANK: 0Before Norm:  X: 18 Y: 19 Z: 9
RANK: 0Before Velocity TUPLE:  X: 18 Y: 19 Z: 9
RANK: 0Before Vorticity TUPLE:  X: 18 Y: 19 Z: 9
RANK: 0Before Norm TUPLE:  X: 18 Y: 19 Z: 9
RANK: 0Before Velocity:  X: 19 Y: 19 Z: 9
RANK: 0Before Vorticity :  X: 19 Y: 19 Z: 9
RANK: 0Before Norm:  X: 19 Y: 19 Z: 9
RANK: 0Before Velocity TUPLE:  X: 19 Y: 19 Z: 9
RANK: 0Before Vorticity TUPLE:  X: 19 Y: 19 Z: 9
RANK: 0Before Norm TUPLE:  X: 19 Y: 19 Z: 9
RANK: 0Before Velocity:  X: 20 Y: 19 Z: 9
RANK: 0Before Vorticity :  X: 20 Y: 19 Z: 9
RANK: 0Before Norm:  X: 20 Y: 19 Z: 9
RANK: 0Before Velocity TUPLE:  X: 20 Y: 19 Z: 9
RANK: 0Before Vorticity TUPLE:  X: 20 Y: 19 Z: 9
RANK: 0Before Norm TUPLE:  X: 20 Y: 19 Z: 9
RANK: 0Before Velocity:  X: 0 Y: 20 Z: 9
RANK: 0Before Vorticity :  X: 0 Y: 20 Z: 9
RANK: 0Before Norm:  X: 0 Y: 20 Z: 9
RANK: 0Before Velocity TUPLE:  X: 0 Y: 20 Z: 9
RANK: 0Before Vorticity TUPLE:  X: 0 Y: 20 Z: 9
RANK: 0Before Norm TUPLE:  X: 0 Y: 20 Z: 9
RANK: 0Before Velocity:  X: 1 Y: 20 Z: 9
RANK: 0Before Vorticity :  X: 1 Y: 20 Z: 9
RANK: 0Before Norm:  X: 1 Y: 20 Z: 9
RANK: 0Before Velocity TUPLE:  X: 1 Y: 20 Z: 9
RANK: 0Before Vorticity TUPLE:  X: 1 Y: 20 Z: 9
RANK: 0Before Norm TUPLE:  X: 1 Y: 20 Z: 9
RANK: 0Before Velocity:  X: 2 Y: 20 Z: 9
RANK: 0Before Vorticity :  X: 2 Y: 20 Z: 9
RANK: 0Before Norm:  X: 2 Y: 20 Z: 9
RANK: 0Before Velocity TUPLE:  X: 2 Y: 20 Z: 9
RANK: 0Before Vorticity TUPLE:  X: 2 Y: 20 Z: 9
RANK: 0Before Norm TUPLE:  X: 2 Y: 20 Z: 9
RANK: 0Before Velocity:  X: 3 Y: 20 Z: 9
RANK: 0Before Vorticity :  X: 3 Y: 20 Z: 9
RANK: 0Before Norm:  X: 3 Y: 20 Z: 9
RANK: 0Before Velocity TUPLE:  X: 3 Y: 20 Z: 9
RANK: 0Before Vorticity TUPLE:  X: 3 Y: 20 Z: 9
RANK: 0Before Norm TUPLE:  X: 3 Y: 20 Z: 9
RANK: 0Before Velocity:  X: 4 Y: 20 Z: 9
RANK: 0Before Vorticity :  X: 4 Y: 20 Z: 9
RANK: 0Before Norm:  X: 4 Y: 20 Z: 9
RANK: 0Before Velocity TUPLE:  X: 4 Y: 20 Z: 9
RANK: 0Before Vorticity TUPLE:  X: 4 Y: 20 Z: 9
RANK: 0Before Norm TUPLE:  X: 4 Y: 20 Z: 9
RANK: 0Before Velocity:  X: 5 Y: 20 Z: 9
RANK: 0Before Vorticity :  X: 5 Y: 20 Z: 9
RANK: 0Before Norm:  X: 5 Y: 20 Z: 9
RANK: 0Before Velocity TUPLE:  X: 5 Y: 20 Z: 9
RANK: 0Before Vorticity TUPLE:  X: 5 Y: 20 Z: 9
RANK: 0Before Norm TUPLE:  X: 5 Y: 20 Z: 9
RANK: 0Before Velocity:  X: 6 Y: 20 Z: 9
RANK: 0Before Vorticity :  X: 6 Y: 20 Z: 9
RANK: 0Before Norm:  X: 6 Y: 20 Z: 9
RANK: 0Before Velocity TUPLE:  X: 6 Y: 20 Z: 9
RANK: 0Before Vorticity TUPLE:  X: 6 Y: 20 Z: 9
RANK: 0Before Norm TUPLE:  X: 6 Y: 20 Z: 9
RANK: 0Before Velocity:  X: 7 Y: 20 Z: 9
RANK: 0Before Vorticity :  X: 7 Y: 20 Z: 9
RANK: 0Before Norm:  X: 7 Y: 20 Z: 9
RANK: 0Before Velocity TUPLE:  X: 7 Y: 20 Z: 9
RANK: 0Before Vorticity TUPLE:  X: 7 Y: 20 Z: 9
RANK: 0Before Norm TUPLE:  X: 7 Y: 20 Z: 9
RANK: 0Before Velocity:  X: 8 Y: 20 Z: 9
RANK: 0Before Vorticity :  X: 8 Y: 20 Z: 9
RANK: 0Before Norm:  X: 8 Y: 20 Z: 9
RANK: 0Before Velocity TUPLE:  X: 8 Y: 20 Z: 9
RANK: 0Before Vorticity TUPLE:  X: 8 Y: 20 Z: 9
RANK: 0Before Norm TUPLE:  X: 8 Y: 20 Z: 9
RANK: 0Before Velocity:  X: 9 Y: 20 Z: 9
RANK: 0Before Vorticity :  X: 9 Y: 20 Z: 9
RANK: 0Before Norm:  X: 9 Y: 20 Z: 9
RANK: 0Before Velocity TUPLE:  X: 9 Y: 20 Z: 9
RANK: 0Before Vorticity TUPLE:  X: 9 Y: 20 Z: 9
RANK: 0Before Norm TUPLE:  X: 9 Y: 20 Z: 9
RANK: 0Before Velocity:  X: 10 Y: 20 Z: 9
RANK: 0Before Vorticity :  X: 10 Y: 20 Z: 9
RANK: 0Before Norm:  X: 10 Y: 20 Z: 9
RANK: 0Before Velocity TUPLE:  X: 10 Y: 20 Z: 9
RANK: 0Before Vorticity TUPLE:  X: 10 Y: 20 Z: 9
RANK: 0Before Norm TUPLE:  X: 10 Y: 20 Z: 9
RANK: 0Before Velocity:  X: 11 Y: 20 Z: 9
RANK: 0Before Vorticity :  X: 11 Y: 20 Z: 9
RANK: 0Before Norm:  X: 11 Y: 20 Z: 9
RANK: 0Before Velocity TUPLE:  X: 11 Y: 20 Z: 9
RANK: 0Before Vorticity TUPLE:  X: 11 Y: 20 Z: 9
RANK: 0Before Norm TUPLE:  X: 11 Y: 20 Z: 9
RANK: 0Before Velocity:  X: 12 Y: 20 Z: 9
RANK: 0Before Vorticity :  X: 12 Y: 20 Z: 9
RANK: 0Before Norm:  X: 12 Y: 20 Z: 9
RANK: 0Before Velocity TUPLE:  X: 12 Y: 20 Z: 9
RANK: 0Before Vorticity TUPLE:  X: 12 Y: 20 Z: 9
RANK: 0Before Norm TUPLE:  X: 12 Y: 20 Z: 9
RANK: 0Before Velocity:  X: 13 Y: 20 Z: 9
RANK: 0Before Vorticity :  X: 13 Y: 20 Z: 9
RANK: 0Before Norm:  X: 13 Y: 20 Z: 9
RANK: 0Before Velocity TUPLE:  X: 13 Y: 20 Z: 9
RANK: 0Before Vorticity TUPLE:  X: 13 Y: 20 Z: 9
RANK: 0Before Norm TUPLE:  X: 13 Y: 20 Z: 9
RANK: 0Before Velocity:  X: 14 Y: 20 Z: 9
RANK: 0Before Vorticity :  X: 14 Y: 20 Z: 9
RANK: 0Before Norm:  X: 14 Y: 20 Z: 9
RANK: 0Before Velocity TUPLE:  X: 14 Y: 20 Z: 9
RANK: 0Before Vorticity TUPLE:  X: 14 Y: 20 Z: 9
RANK: 0Before Norm TUPLE:  X: 14 Y: 20 Z: 9
RANK: 0Before Velocity:  X: 15 Y: 20 Z: 9
RANK: 0Before Vorticity :  X: 15 Y: 20 Z: 9
RANK: 0Before Norm:  X: 15 Y: 20 Z: 9
RANK: 0Before Velocity TUPLE:  X: 15 Y: 20 Z: 9
RANK: 0Before Vorticity TUPLE:  X: 15 Y: 20 Z: 9
RANK: 0Before Norm TUPLE:  X: 15 Y: 20 Z: 9
RANK: 0Before Velocity:  X: 16 Y: 20 Z: 9
RANK: 0Before Vorticity :  X: 16 Y: 20 Z: 9
RANK: 0Before Norm:  X: 16 Y: 20 Z: 9
RANK: 0Before Velocity TUPLE:  X: 16 Y: 20 Z: 9
RANK: 0Before Vorticity TUPLE:  X: 16 Y: 20 Z: 9
RANK: 0Before Norm TUPLE:  X: 16 Y: 20 Z: 9
RANK: 0Before Velocity:  X: 17 Y: 20 Z: 9
RANK: 0Before Vorticity :  X: 17 Y: 20 Z: 9
RANK: 0Before Norm:  X: 17 Y: 20 Z: 9
RANK: 0Before Velocity TUPLE:  X: 17 Y: 20 Z: 9
RANK: 0Before Vorticity TUPLE:  X: 17 Y: 20 Z: 9
RANK: 0Before Norm TUPLE:  X: 17 Y: 20 Z: 9
RANK: 0Before Velocity:  X: 18 Y: 20 Z: 9
RANK: 0Before Vorticity :  X: 18 Y: 20 Z: 9
RANK: 0Before Norm:  X: 18 Y: 20 Z: 9
RANK: 0Before Velocity TUPLE:  X: 18 Y: 20 Z: 9
RANK: 0Before Vorticity TUPLE:  X: 18 Y: 20 Z: 9
RANK: 0Before Norm TUPLE:  X: 18 Y: 20 Z: 9
RANK: 0Before Velocity:  X: 19 Y: 20 Z: 9
RANK: 0Before Vorticity :  X: 19 Y: 20 Z: 9
RANK: 0Before Norm:  X: 19 Y: 20 Z: 9
RANK: 0Before Velocity TUPLE:  X: 19 Y: 20 Z: 9
RANK: 0Before Vorticity TUPLE:  X: 19 Y: 20 Z: 9
RANK: 0Before Norm TUPLE:  X: 19 Y: 20 Z: 9
RANK: 0Before Velocity:  X: 20 Y: 20 Z: 9
RANK: 0Before Vorticity :  X: 20 Y: 20 Z: 9
RANK: 0Before Norm:  X: 20 Y: 20 Z: 9
RANK: 0Before Velocity TUPLE:  X: 20 Y: 20 Z: 9
RANK: 0Before Vorticity TUPLE:  X: 20 Y: 20 Z: 9
RANK: 0Before Norm TUPLE:  X: 20 Y: 20 Z: 9
RANK: 0BEFORE ADD PALABOS DATA
RANK: 0 LOOPING IS DONE
