6
Atoms. Timestep: 0
1 0 -1 0
1 0 1 0
1 1 0 0
1 -1 0 0
1 0 0 -1
1 0 0 1
6
Atoms. Timestep: 100
1 0 -1 0
1 0 1 0
1 1 0 0
1 -1 0 0
1 0 0 -1
1 0 0 1
6
Atoms. Timestep: 200
1 0 -1 0
1 0 1 0
1 1 0 0
1 -1 0 0
1 0 0 -1
1 0 0 1
6
Atoms. Timestep: 300
1 0 -1 0
1 0 1 0
1 1 0 0
1 -1 0 0
1 0 0 -1
1 0 0 1
6
Atoms. Timestep: 400
1 0 -1 0
1 0 1 0
1 1 0 0
1 -1 0 0
1 0 0 -1
1 0 0 1
6
Atoms. Timestep: 500
1 0 -1 0
1 0 1 0
1 1 0 0
1 -1 0 0
1 0 0 -1
1 0 0 1
6
Atoms. Timestep: 600
1 0 -1 0
1 0 1 0
1 1 0 0
1 -1 0 0
1 0 0 -1
1 0 0 1
6
Atoms. Timestep: 700
1 0 -1 0
1 0 1 0
1 1 0 0
1 -1 0 0
1 0 0 -1
1 0 0 1
6
Atoms. Timestep: 800
1 0 -1 0
1 0 1 0
1 1 0 0
1 -1 0 0
1 0 0 -1
1 0 0 1
6
Atoms. Timestep: 900
1 0 -1 0
1 0 1 0
1 1 0 0
1 -1 0 0
1 0 0 -1
1 0 0 1
6
Atoms. Timestep: 1000
1 0 -1 0
1 0 1 0
1 1 0 0
1 -1 0 0
1 0 0 -1
1 0 0 1
