lammps cell input
486 atoms
1440 bonds
960 angles
1440 dihedrals

1 atom types
480 bond types
320 angle types
480 dihedral types
-5 5 xlo xhi
-5 5 ylo yhi
-5 10 zlo zhi

Masses

1 1

Bond Coeffs

1 0 0
 2 0 0
 3 0 0
 4 0 0
 5 0 0
 6 0 0
 7 0 0
 8 0 0
 9 0 0
 10 0 0
 11 0 0
 12 0 0
 13 0 0
 14 0 0
 15 0 0
 16 0 0
 17 0 0
 18 0 0
 19 0 0
 20 0 0
 21 0 0
 22 0 0
 23 0 0
 24 0 0
 25 0 0
 26 0 0
 27 0 0
 28 0 0
 29 0 0
 30 0 0
 31 0 0
 32 0 0
 33 0 0
 34 0 0
 35 0 0
 36 0 0
 37 0 0
 38 0 0
 39 0 0
 40 0 0
 41 0 0
 42 0 0
 43 0 0
 44 0 0
 45 0 0
 46 0 0
 47 0 0
 48 0 0
 49 0 0
 50 0 0
 51 0 0
 52 0 0
 53 0 0
 54 0 0
 55 0 0
 56 0 0
 57 0 0
 58 0 0
 59 0 0
 60 0 0
 61 0 0
 62 0 0
 63 0 0
 64 0 0
 65 0 0
 66 0 0
 67 0 0
 68 0 0
 69 0 0
 70 0 0
 71 0 0
 72 0 0
 73 0 0
 74 0 0
 75 0 0
 76 0 0
 77 0 0
 78 0 0
 79 0 0
 80 0 0
 81 0 0
 82 0 0
 83 0 0
 84 0 0
 85 0 0
 86 0 0
 87 0 0
 88 0 0
 89 0 0
 90 0 0
 91 0 0
 92 0 0
 93 0 0
 94 0 0
 95 0 0
 96 0 0
 97 0 0
 98 0 0
 99 0 0
 100 0 0
 101 0 0
 102 0 0
 103 0 0
 104 0 0
 105 0 0
 106 0 0
 107 0 0
 108 0 0
 109 0 0
 110 0 0
 111 0 0
 112 0 0
 113 0 0
 114 0 0
 115 0 0
 116 0 0
 117 0 0
 118 0 0
 119 0 0
 120 0 0
 121 0 0
 122 0 0
 123 0 0
 124 0 0
 125 0 0
 126 0 0
 127 0 0
 128 0 0
 129 0 0
 130 0 0
 131 0 0
 132 0 0
 133 0 0
 134 0 0
 135 0 0
 136 0 0
 137 0 0
 138 0 0
 139 0 0
 140 0 0
 141 0 0
 142 0 0
 143 0 0
 144 0 0
 145 0 0
 146 0 0
 147 0 0
 148 0 0
 149 0 0
 150 0 0
 151 0 0
 152 0 0
 153 0 0
 154 0 0
 155 0 0
 156 0 0
 157 0 0
 158 0 0
 159 0 0
 160 0 0
 161 0 0
 162 0 0
 163 0 0
 164 0 0
 165 0 0
 166 0 0
 167 0 0
 168 0 0
 169 0 0
 170 0 0
 171 0 0
 172 0 0
 173 0 0
 174 0 0
 175 0 0
 176 0 0
 177 0 0
 178 0 0
 179 0 0
 180 0 0
 181 0 0
 182 0 0
 183 0 0
 184 0 0
 185 0 0
 186 0 0
 187 0 0
 188 0 0
 189 0 0
 190 0 0
 191 0 0
 192 0 0
 193 0 0
 194 0 0
 195 0 0
 196 0 0
 197 0 0
 198 0 0
 199 0 0
 200 0 0
 201 0 0
 202 0 0
 203 0 0
 204 0 0
 205 0 0
 206 0 0
 207 0 0
 208 0 0
 209 0 0
 210 0 0
 211 0 0
 212 0 0
 213 0 0
 214 0 0
 215 0 0
 216 0 0
 217 0 0
 218 0 0
 219 0 0
 220 0 0
 221 0 0
 222 0 0
 223 0 0
 224 0 0
 225 0 0
 226 0 0
 227 0 0
 228 0 0
 229 0 0
 230 0 0
 231 0 0
 232 0 0
 233 0 0
 234 0 0
 235 0 0
 236 0 0
 237 0 0
 238 0 0
 239 0 0
 240 0 0
 241 0 0
 242 0 0
 243 0 0
 244 0 0
 245 0 0
 246 0 0
 247 0 0
 248 0 0
 249 0 0
 250 0 0
 251 0 0
 252 0 0
 253 0 0
 254 0 0
 255 0 0
 256 0 0
 257 0 0
 258 0 0
 259 0 0
 260 0 0
 261 0 0
 262 0 0
 263 0 0
 264 0 0
 265 0 0
 266 0 0
 267 0 0
 268 0 0
 269 0 0
 270 0 0
 271 0 0
 272 0 0
 273 0 0
 274 0 0
 275 0 0
 276 0 0
 277 0 0
 278 0 0
 279 0 0
 280 0 0
 281 0 0
 282 0 0
 283 0 0
 284 0 0
 285 0 0
 286 0 0
 287 0 0
 288 0 0
 289 0 0
 290 0 0
 291 0 0
 292 0 0
 293 0 0
 294 0 0
 295 0 0
 296 0 0
 297 0 0
 298 0 0
 299 0 0
 300 0 0
 301 0 0
 302 0 0
 303 0 0
 304 0 0
 305 0 0
 306 0 0
 307 0 0
 308 0 0
 309 0 0
 310 0 0
 311 0 0
 312 0 0
 313 0 0
 314 0 0
 315 0 0
 316 0 0
 317 0 0
 318 0 0
 319 0 0
 320 0 0
 321 0 0
 322 0 0
 323 0 0
 324 0 0
 325 0 0
 326 0 0
 327 0 0
 328 0 0
 329 0 0
 330 0 0
 331 0 0
 332 0 0
 333 0 0
 334 0 0
 335 0 0
 336 0 0
 337 0 0
 338 0 0
 339 0 0
 340 0 0
 341 0 0
 342 0 0
 343 0 0
 344 0 0
 345 0 0
 346 0 0
 347 0 0
 348 0 0
 349 0 0
 350 0 0
 351 0 0
 352 0 0
 353 0 0
 354 0 0
 355 0 0
 356 0 0
 357 0 0
 358 0 0
 359 0 0
 360 0 0
 361 0 0
 362 0 0
 363 0 0
 364 0 0
 365 0 0
 366 0 0
 367 0 0
 368 0 0
 369 0 0
 370 0 0
 371 0 0
 372 0 0
 373 0 0
 374 0 0
 375 0 0
 376 0 0
 377 0 0
 378 0 0
 379 0 0
 380 0 0
 381 0 0
 382 0 0
 383 0 0
 384 0 0
 385 0 0
 386 0 0
 387 0 0
 388 0 0
 389 0 0
 390 0 0
 391 0 0
 392 0 0
 393 0 0
 394 0 0
 395 0 0
 396 0 0
 397 0 0
 398 0 0
 399 0 0
 400 0 0
 401 0 0
 402 0 0
 403 0 0
 404 0 0
 405 0 0
 406 0 0
 407 0 0
 408 0 0
 409 0 0
 410 0 0
 411 0 0
 412 0 0
 413 0 0
 414 0 0
 415 0 0
 416 0 0
 417 0 0
 418 0 0
 419 0 0
 420 0 0
 421 0 0
 422 0 0
 423 0 0
 424 0 0
 425 0 0
 426 0 0
 427 0 0
 428 0 0
 429 0 0
 430 0 0
 431 0 0
 432 0 0
 433 0 0
 434 0 0
 435 0 0
 436 0 0
 437 0 0
 438 0 0
 439 0 0
 440 0 0
 441 0 0
 442 0 0
 443 0 0
 444 0 0
 445 0 0
 446 0 0
 447 0 0
 448 0 0
 449 0 0
 450 0 0
 451 0 0
 452 0 0
 453 0 0
 454 0 0
 455 0 0
 456 0 0
 457 0 0
 458 0 0
 459 0 0
 460 0 0
 461 0 0
 462 0 0
 463 0 0
 464 0 0
 465 0 0
 466 0 0
 467 0 0
 468 0 0
 469 0 0
 470 0 0
 471 0 0
 472 0 0
 473 0 0
 474 0 0
 475 0 0
 476 0 0
 477 0 0
 478 0 0
 479 0 0
 480 0 0
 
Angle Coeffs

1 0 0 0 3.08246 0 0.505881 0 0.00900808
2 0 0 0 3.08246 0 0.505881 0 0.00900808
3 0 0 0 3.08246 0 0.505881 0 0.00900808
4 0 0 0 3.08246 0 0.505881 0 0.00900808
5 0 0 0 3.08246 0 0.505881 0 0.00900808
6 0 0 0 3.08246 0 0.505881 0 0.00900808
7 0 0 0 3.08246 0 0.505881 0 0.00900808
8 0 0 0 3.08246 0 0.505881 0 0.00900808
9 0 0 0 3.08246 0 0.505881 0 0.00900808
10 0 0 0 3.08246 0 0.505881 0 0.00900808
11 0 0 0 3.08246 0 0.505881 0 0.00900808
12 0 0 0 3.08246 0 0.505881 0 0.00900808
13 0 0 0 3.08246 0 0.505881 0 0.00900808
14 0 0 0 3.08246 0 0.505881 0 0.00900808
15 0 0 0 3.08246 0 0.505881 0 0.00900808
16 0 0 0 3.08246 0 0.505881 0 0.00900808
17 0 0 0 3.08246 0 0.505881 0 0.00900808
18 0 0 0 3.08246 0 0.505881 0 0.00900808
19 0 0 0 3.08246 0 0.505881 0 0.00900808
20 0 0 0 3.08246 0 0.505881 0 0.00900808
21 0 0 0 3.08246 0 0.505881 0 0.00900808
22 0 0 0 3.08246 0 0.505881 0 0.00900808
23 0 0 0 3.08246 0 0.505881 0 0.00900808
24 0 0 0 3.08246 0 0.505881 0 0.00900808
25 0 0 0 3.08246 0 0.505881 0 0.00900808
26 0 0 0 3.08246 0 0.505881 0 0.00900808
27 0 0 0 3.08246 0 0.505881 0 0.00900808
28 0 0 0 3.08246 0 0.505881 0 0.00900808
29 0 0 0 3.08246 0 0.505881 0 0.00900808
30 0 0 0 3.08246 0 0.505881 0 0.00900808
31 0 0 0 3.08246 0 0.505881 0 0.00900808
32 0 0 0 3.08246 0 0.505881 0 0.00900808
33 0 0 0 3.08246 0 0.505881 0 0.00900808
34 0 0 0 3.08246 0 0.505881 0 0.00900808
35 0 0 0 3.08246 0 0.505881 0 0.00900808
36 0 0 0 3.08246 0 0.505881 0 0.00900808
37 0 0 0 3.08246 0 0.505881 0 0.00900808
38 0 0 0 3.08246 0 0.505881 0 0.00900808
39 0 0 0 3.08246 0 0.505881 0 0.00900808
40 0 0 0 3.08246 0 0.505881 0 0.00900808
41 0 0 0 3.08246 0 0.505881 0 0.00900808
42 0 0 0 3.08246 0 0.505881 0 0.00900808
43 0 0 0 3.08246 0 0.505881 0 0.00900808
44 0 0 0 3.08246 0 0.505881 0 0.00900808
45 0 0 0 3.08246 0 0.505881 0 0.00900808
46 0 0 0 3.08246 0 0.505881 0 0.00900808
47 0 0 0 3.08246 0 0.505881 0 0.00900808
48 0 0 0 3.08246 0 0.505881 0 0.00900808
49 0 0 0 3.08246 0 0.505881 0 0.00900808
50 0 0 0 3.08246 0 0.505881 0 0.00900808
51 0 0 0 3.08246 0 0.505881 0 0.00900808
52 0 0 0 3.08246 0 0.505881 0 0.00900808
53 0 0 0 3.08246 0 0.505881 0 0.00900808
54 0 0 0 3.08246 0 0.505881 0 0.00900808
55 0 0 0 3.08246 0 0.505881 0 0.00900808
56 0 0 0 3.08246 0 0.505881 0 0.00900808
57 0 0 0 3.08246 0 0.505881 0 0.00900808
58 0 0 0 3.08246 0 0.505881 0 0.00900808
59 0 0 0 3.08246 0 0.505881 0 0.00900808
60 0 0 0 3.08246 0 0.505881 0 0.00900808
61 0 0 0 3.08246 0 0.505881 0 0.0108598
62 0 0 0 3.08246 0 0.505881 0 0.0108598
63 0 0 0 3.08246 0 0.505881 0 0.0108598
64 0 0 0 3.08246 0 0.505881 0 0.0108598
65 0 0 0 3.08246 0 0.505881 0 0.0108598
66 0 0 0 3.08246 0 0.505881 0 0.0108598
67 0 0 0 3.08246 0 0.505881 0 0.0108598
68 0 0 0 3.08246 0 0.505881 0 0.0108598
69 0 0 0 3.08246 0 0.505881 0 0.0108598
70 0 0 0 3.08246 0 0.505881 0 0.0108598
71 0 0 0 3.08246 0 0.505881 0 0.0108598
72 0 0 0 3.08246 0 0.505881 0 0.0108598
73 0 0 0 3.08246 0 0.505881 0 0.0108598
74 0 0 0 3.08246 0 0.505881 0 0.0108598
75 0 0 0 3.08246 0 0.505881 0 0.0108598
76 0 0 0 3.08246 0 0.505881 0 0.0108598
77 0 0 0 3.08246 0 0.505881 0 0.0108598
78 0 0 0 3.08246 0 0.505881 0 0.0108598
79 0 0 0 3.08246 0 0.505881 0 0.0108598
80 0 0 0 3.08246 0 0.505881 0 0.0108598
81 0 0 0 3.08246 0 0.505881 0 0.00911018
82 0 0 0 3.08246 0 0.505881 0 0.00911018
83 0 0 0 3.08246 0 0.505881 0 0.00911018
84 0 0 0 3.08246 0 0.505881 0 0.00911018
85 0 0 0 3.08246 0 0.505881 0 0.00911018
86 0 0 0 3.08246 0 0.505881 0 0.00911018
87 0 0 0 3.08246 0 0.505881 0 0.00911018
88 0 0 0 3.08246 0 0.505881 0 0.00911018
89 0 0 0 3.08246 0 0.505881 0 0.00911018
90 0 0 0 3.08246 0 0.505881 0 0.00911018
91 0 0 0 3.08246 0 0.505881 0 0.00911018
92 0 0 0 3.08246 0 0.505881 0 0.00911018
93 0 0 0 3.08246 0 0.505881 0 0.00911018
94 0 0 0 3.08246 0 0.505881 0 0.00911018
95 0 0 0 3.08246 0 0.505881 0 0.00911018
96 0 0 0 3.08246 0 0.505881 0 0.00911018
97 0 0 0 3.08246 0 0.505881 0 0.00911018
98 0 0 0 3.08246 0 0.505881 0 0.00911018
99 0 0 0 3.08246 0 0.505881 0 0.00911018
100 0 0 0 3.08246 0 0.505881 0 0.00911018
101 0 0 0 3.08246 0 0.505881 0 0.00911018
102 0 0 0 3.08246 0 0.505881 0 0.00911018
103 0 0 0 3.08246 0 0.505881 0 0.00911018
104 0 0 0 3.08246 0 0.505881 0 0.00911018
105 0 0 0 3.08246 0 0.505881 0 0.00911018
106 0 0 0 3.08246 0 0.505881 0 0.00911018
107 0 0 0 3.08246 0 0.505881 0 0.00911018
108 0 0 0 3.08246 0 0.505881 0 0.00911018
109 0 0 0 3.08246 0 0.505881 0 0.00911018
110 0 0 0 3.08246 0 0.505881 0 0.00911018
111 0 0 0 3.08246 0 0.505881 0 0.00911018
112 0 0 0 3.08246 0 0.505881 0 0.00911018
113 0 0 0 3.08246 0 0.505881 0 0.00911018
114 0 0 0 3.08246 0 0.505881 0 0.00911018
115 0 0 0 3.08246 0 0.505881 0 0.00911018
116 0 0 0 3.08246 0 0.505881 0 0.00911018
117 0 0 0 3.08246 0 0.505881 0 0.00911018
118 0 0 0 3.08246 0 0.505881 0 0.00911018
119 0 0 0 3.08246 0 0.505881 0 0.00911018
120 0 0 0 3.08246 0 0.505881 0 0.00911018
121 0 0 0 3.08246 0 0.505881 0 0.00911018
122 0 0 0 3.08246 0 0.505881 0 0.00911018
123 0 0 0 3.08246 0 0.505881 0 0.00911018
124 0 0 0 3.08246 0 0.505881 0 0.00911018
125 0 0 0 3.08246 0 0.505881 0 0.00911018
126 0 0 0 3.08246 0 0.505881 0 0.00911018
127 0 0 0 3.08246 0 0.505881 0 0.00911018
128 0 0 0 3.08246 0 0.505881 0 0.00911018
129 0 0 0 3.08246 0 0.505881 0 0.00911018
130 0 0 0 3.08246 0 0.505881 0 0.00911018
131 0 0 0 3.08246 0 0.505881 0 0.00911018
132 0 0 0 3.08246 0 0.505881 0 0.00911018
133 0 0 0 3.08246 0 0.505881 0 0.00911018
134 0 0 0 3.08246 0 0.505881 0 0.00911018
135 0 0 0 3.08246 0 0.505881 0 0.00911018
136 0 0 0 3.08246 0 0.505881 0 0.00911018
137 0 0 0 3.08246 0 0.505881 0 0.00911018
138 0 0 0 3.08246 0 0.505881 0 0.00911018
139 0 0 0 3.08246 0 0.505881 0 0.00911018
140 0 0 0 3.08246 0 0.505881 0 0.00911018
141 0 0 0 3.08246 0 0.505881 0 0.0108598
142 0 0 0 3.08246 0 0.505881 0 0.0108598
143 0 0 0 3.08246 0 0.505881 0 0.0108598
144 0 0 0 3.08246 0 0.505881 0 0.0108598
145 0 0 0 3.08246 0 0.505881 0 0.0108598
146 0 0 0 3.08246 0 0.505881 0 0.0108598
147 0 0 0 3.08246 0 0.505881 0 0.0108598
148 0 0 0 3.08246 0 0.505881 0 0.0108598
149 0 0 0 3.08246 0 0.505881 0 0.0108598
150 0 0 0 3.08246 0 0.505881 0 0.0108598
151 0 0 0 3.08246 0 0.505881 0 0.0108598
152 0 0 0 3.08246 0 0.505881 0 0.0108598
153 0 0 0 3.08246 0 0.505881 0 0.0108598
154 0 0 0 3.08246 0 0.505881 0 0.0108598
155 0 0 0 3.08246 0 0.505881 0 0.0108598
156 0 0 0 3.08246 0 0.505881 0 0.0108598
157 0 0 0 3.08246 0 0.505881 0 0.0108598
158 0 0 0 3.08246 0 0.505881 0 0.0108598
159 0 0 0 3.08246 0 0.505881 0 0.0108598
160 0 0 0 3.08246 0 0.505881 0 0.0108598
161 0 0 0 3.08246 0 0.505881 0 0.00911018
162 0 0 0 3.08246 0 0.505881 0 0.00911018
163 0 0 0 3.08246 0 0.505881 0 0.00911018
164 0 0 0 3.08246 0 0.505881 0 0.00911018
165 0 0 0 3.08246 0 0.505881 0 0.00911018
166 0 0 0 3.08246 0 0.505881 0 0.00911018
167 0 0 0 3.08246 0 0.505881 0 0.00911018
168 0 0 0 3.08246 0 0.505881 0 0.00911018
169 0 0 0 3.08246 0 0.505881 0 0.00911018
170 0 0 0 3.08246 0 0.505881 0 0.00911018
171 0 0 0 3.08246 0 0.505881 0 0.00911018
172 0 0 0 3.08246 0 0.505881 0 0.00911018
173 0 0 0 3.08246 0 0.505881 0 0.00911018
174 0 0 0 3.08246 0 0.505881 0 0.00911018
175 0 0 0 3.08246 0 0.505881 0 0.00911018
176 0 0 0 3.08246 0 0.505881 0 0.00911018
177 0 0 0 3.08246 0 0.505881 0 0.00911018
178 0 0 0 3.08246 0 0.505881 0 0.00911018
179 0 0 0 3.08246 0 0.505881 0 0.00911018
180 0 0 0 3.08246 0 0.505881 0 0.00911018
181 0 0 0 3.08246 0 0.505881 0 0.00911018
182 0 0 0 3.08246 0 0.505881 0 0.00911018
183 0 0 0 3.08246 0 0.505881 0 0.00911018
184 0 0 0 3.08246 0 0.505881 0 0.00911018
185 0 0 0 3.08246 0 0.505881 0 0.00911018
186 0 0 0 3.08246 0 0.505881 0 0.00911018
187 0 0 0 3.08246 0 0.505881 0 0.00911018
188 0 0 0 3.08246 0 0.505881 0 0.00911018
189 0 0 0 3.08246 0 0.505881 0 0.00911018
190 0 0 0 3.08246 0 0.505881 0 0.00911018
191 0 0 0 3.08246 0 0.505881 0 0.00911018
192 0 0 0 3.08246 0 0.505881 0 0.00911018
193 0 0 0 3.08246 0 0.505881 0 0.00911018
194 0 0 0 3.08246 0 0.505881 0 0.00911018
195 0 0 0 3.08246 0 0.505881 0 0.00911018
196 0 0 0 3.08246 0 0.505881 0 0.00911018
197 0 0 0 3.08246 0 0.505881 0 0.00911018
198 0 0 0 3.08246 0 0.505881 0 0.00911018
199 0 0 0 3.08246 0 0.505881 0 0.00911018
200 0 0 0 3.08246 0 0.505881 0 0.00911018
201 0 0 0 3.08246 0 0.505881 0 0.00911018
202 0 0 0 3.08246 0 0.505881 0 0.00911018
203 0 0 0 3.08246 0 0.505881 0 0.00911018
204 0 0 0 3.08246 0 0.505881 0 0.00911018
205 0 0 0 3.08246 0 0.505881 0 0.00911018
206 0 0 0 3.08246 0 0.505881 0 0.00911018
207 0 0 0 3.08246 0 0.505881 0 0.00911018
208 0 0 0 3.08246 0 0.505881 0 0.00911018
209 0 0 0 3.08246 0 0.505881 0 0.00911018
210 0 0 0 3.08246 0 0.505881 0 0.00911018
211 0 0 0 3.08246 0 0.505881 0 0.00911018
212 0 0 0 3.08246 0 0.505881 0 0.00911018
213 0 0 0 3.08246 0 0.505881 0 0.00911018
214 0 0 0 3.08246 0 0.505881 0 0.00911018
215 0 0 0 3.08246 0 0.505881 0 0.00911018
216 0 0 0 3.08246 0 0.505881 0 0.00911018
217 0 0 0 3.08246 0 0.505881 0 0.00911018
218 0 0 0 3.08246 0 0.505881 0 0.00911018
219 0 0 0 3.08246 0 0.505881 0 0.00911018
220 0 0 0 3.08246 0 0.505881 0 0.00911018
221 0 0 0 3.08246 0 0.505881 0 0.0108598
222 0 0 0 3.08246 0 0.505881 0 0.0108598
223 0 0 0 3.08246 0 0.505881 0 0.0108598
224 0 0 0 3.08246 0 0.505881 0 0.0108598
225 0 0 0 3.08246 0 0.505881 0 0.0108598
226 0 0 0 3.08246 0 0.505881 0 0.0108598
227 0 0 0 3.08246 0 0.505881 0 0.0108598
228 0 0 0 3.08246 0 0.505881 0 0.0108598
229 0 0 0 3.08246 0 0.505881 0 0.0108598
230 0 0 0 3.08246 0 0.505881 0 0.0108598
231 0 0 0 3.08246 0 0.505881 0 0.0108598
232 0 0 0 3.08246 0 0.505881 0 0.0108598
233 0 0 0 3.08246 0 0.505881 0 0.0108598
234 0 0 0 3.08246 0 0.505881 0 0.0108598
235 0 0 0 3.08246 0 0.505881 0 0.0108598
236 0 0 0 3.08246 0 0.505881 0 0.0108598
237 0 0 0 3.08246 0 0.505881 0 0.0108598
238 0 0 0 3.08246 0 0.505881 0 0.0108598
239 0 0 0 3.08246 0 0.505881 0 0.0108598
240 0 0 0 3.08246 0 0.505881 0 0.0108598
241 0 0 0 3.08246 0 0.505881 0 0.00947665
242 0 0 0 3.08246 0 0.505881 0 0.00947665
243 0 0 0 3.08246 0 0.505881 0 0.00947665
244 0 0 0 3.08246 0 0.505881 0 0.00947665
245 0 0 0 3.08246 0 0.505881 0 0.00947665
246 0 0 0 3.08246 0 0.505881 0 0.00947665
247 0 0 0 3.08246 0 0.505881 0 0.00947665
248 0 0 0 3.08246 0 0.505881 0 0.00947665
249 0 0 0 3.08246 0 0.505881 0 0.00947665
250 0 0 0 3.08246 0 0.505881 0 0.00947665
251 0 0 0 3.08246 0 0.505881 0 0.00947665
252 0 0 0 3.08246 0 0.505881 0 0.00947665
253 0 0 0 3.08246 0 0.505881 0 0.00947665
254 0 0 0 3.08246 0 0.505881 0 0.00947665
255 0 0 0 3.08246 0 0.505881 0 0.00947665
256 0 0 0 3.08246 0 0.505881 0 0.00947665
257 0 0 0 3.08246 0 0.505881 0 0.00947665
258 0 0 0 3.08246 0 0.505881 0 0.00947665
259 0 0 0 3.08246 0 0.505881 0 0.00947665
260 0 0 0 3.08246 0 0.505881 0 0.00947665
261 0 0 0 3.08246 0 0.505881 0 0.00947665
262 0 0 0 3.08246 0 0.505881 0 0.00947665
263 0 0 0 3.08246 0 0.505881 0 0.00947665
264 0 0 0 3.08246 0 0.505881 0 0.00947665
265 0 0 0 3.08246 0 0.505881 0 0.00947665
266 0 0 0 3.08246 0 0.505881 0 0.00947665
267 0 0 0 3.08246 0 0.505881 0 0.00947665
268 0 0 0 3.08246 0 0.505881 0 0.00947665
269 0 0 0 3.08246 0 0.505881 0 0.00947665
270 0 0 0 3.08246 0 0.505881 0 0.00947665
271 0 0 0 3.08246 0 0.505881 0 0.00947665
272 0 0 0 3.08246 0 0.505881 0 0.00947665
273 0 0 0 3.08246 0 0.505881 0 0.00947665
274 0 0 0 3.08246 0 0.505881 0 0.00947665
275 0 0 0 3.08246 0 0.505881 0 0.00947665
276 0 0 0 3.08246 0 0.505881 0 0.00947665
277 0 0 0 3.08246 0 0.505881 0 0.00947665
278 0 0 0 3.08246 0 0.505881 0 0.00947665
279 0 0 0 3.08246 0 0.505881 0 0.00947665
280 0 0 0 3.08246 0 0.505881 0 0.00947665
281 0 0 0 3.08246 0 0.505881 0 0.00947665
282 0 0 0 3.08246 0 0.505881 0 0.00947665
283 0 0 0 3.08246 0 0.505881 0 0.00947665
284 0 0 0 3.08246 0 0.505881 0 0.00947665
285 0 0 0 3.08246 0 0.505881 0 0.00947665
286 0 0 0 3.08246 0 0.505881 0 0.00947665
287 0 0 0 3.08246 0 0.505881 0 0.00947665
288 0 0 0 3.08246 0 0.505881 0 0.00947665
289 0 0 0 3.08246 0 0.505881 0 0.00947665
290 0 0 0 3.08246 0 0.505881 0 0.00947665
291 0 0 0 3.08246 0 0.505881 0 0.00947665
292 0 0 0 3.08246 0 0.505881 0 0.00947665
293 0 0 0 3.08246 0 0.505881 0 0.00947665
294 0 0 0 3.08246 0 0.505881 0 0.00947665
295 0 0 0 3.08246 0 0.505881 0 0.00947665
296 0 0 0 3.08246 0 0.505881 0 0.00947665
297 0 0 0 3.08246 0 0.505881 0 0.00947665
298 0 0 0 3.08246 0 0.505881 0 0.00947665
299 0 0 0 3.08246 0 0.505881 0 0.00947665
300 0 0 0 3.08246 0 0.505881 0 0.00947665
301 0 0 0 3.08246 0 0.505881 0 0.0114286
302 0 0 0 3.08246 0 0.505881 0 0.0114286
303 0 0 0 3.08246 0 0.505881 0 0.0114286
304 0 0 0 3.08246 0 0.505881 0 0.0114286
305 0 0 0 3.08246 0 0.505881 0 0.0114286
306 0 0 0 3.08246 0 0.505881 0 0.0114286
307 0 0 0 3.08246 0 0.505881 0 0.0114286
308 0 0 0 3.08246 0 0.505881 0 0.0114286
309 0 0 0 3.08246 0 0.505881 0 0.0114286
310 0 0 0 3.08246 0 0.505881 0 0.0114286
311 0 0 0 3.08246 0 0.505881 0 0.0114286
312 0 0 0 3.08246 0 0.505881 0 0.0114286
313 0 0 0 3.08246 0 0.505881 0 0.0114286
314 0 0 0 3.08246 0 0.505881 0 0.0114286
315 0 0 0 3.08246 0 0.505881 0 0.0114286
316 0 0 0 3.08246 0 0.505881 0 0.0114286
317 0 0 0 3.08246 0 0.505881 0 0.0114286
318 0 0 0 3.08246 0 0.505881 0 0.0114286
319 0 0 0 3.08246 0 0.505881 0 0.0114286
320 0 0 0 3.08246 0 0.505881 0 0.0114286

Dihedral Coeffs

1 0 191
2 0 191
3 0 191
4 0 191
5 0 191
6 0 191
7 0 191
8 0 191
9 0 191
10 0 191
11 0 191
12 0 191
13 0 191
14 0 191
15 0 191
16 0 191
17 0 191
18 0 191
19 0 191
20 0 191
21 0 191
22 0 191
23 0 191
24 0 191
25 0 191
26 0 191
27 0 191
28 0 191
29 0 191
30 0 191
31 0 191
32 0 191
33 0 191
34 0 191
35 0 191
36 0 191
37 0 191
38 0 191
39 0 191
40 0 191
41 0 191
42 0 191
43 0 191
44 0 191
45 0 191
46 0 191
47 0 191
48 0 191
49 0 191
50 0 191
51 0 191
52 0 191
53 0 191
54 0 191
55 0 191
56 0 191
57 0 191
58 0 191
59 0 191
60 0 191
61 0 191
62 0 191
63 0 189
64 0 189
65 0 189
66 0 189
67 0 189
68 0 191
69 0 189
70 0 191
71 0 189
72 0 189
73 0 189
74 0 191
75 0 189
76 0 191
77 0 189
78 0 189
79 0 189
80 0 191
81 0 189
82 0 191
83 0 189
84 0 189
85 0 189
86 0 191
87 0 189
88 0 191
89 0 189
90 0 189
91 0 191
92 0 189
93 0 189
94 0 189
95 0 191
96 0 189
97 0 191
98 0 189
99 0 189
100 0 189
101 0 191
102 0 189
103 0 191
104 0 189
105 0 189
106 0 189
107 0 189
108 0 191
109 0 191
110 0 189
111 0 189
112 0 189
113 0 189
114 0 191
115 0 189
116 0 191
117 0 189
118 0 189
119 0 191
120 0 189
121 0 189
122 0 191
123 0 189
124 0 189
125 0 191
126 0 189
127 0 189
128 0 191
129 0 189
130 0 191
131 0 189
132 0 189
133 0 189
134 0 191
135 0 189
136 0 191
137 0 189
138 0 189
139 0 191
140 0 189
141 0 189
142 0 189
143 0 189
144 0 191
145 0 189
146 0 189
147 0 191
148 0 191
149 0 189
150 0 189
151 0 189
152 0 189
153 0 191
154 0 191
155 0 189
156 0 189
157 0 191
158 0 189
159 0 189
160 0 189
161 0 189
162 0 191
163 0 189
164 0 189
165 0 191
166 0 189
167 0 191
168 0 189
169 0 189
170 0 189
171 0 191
172 0 189
173 0 191
174 0 189
175 0 189
176 0 191
177 0 189
178 0 189
179 0 191
180 0 189
181 0 189
182 0 191
183 0 189
184 0 189
185 0 191
186 0 189
187 0 191
188 0 189
189 0 189
190 0 189
191 0 189
192 0 191
193 0 191
194 0 189
195 0 189
196 0 189
197 0 189
198 0 191
199 0 189
200 0 191
201 0 189
202 0 189
203 0 189
204 0 191
205 0 189
206 0 191
207 0 189
208 0 189
209 0 189
210 0 191
211 0 189
212 0 189
213 0 191
214 0 189
215 0 191
216 0 189
217 0 189
218 0 189
219 0 191
220 0 189
221 0 191
222 0 189
223 0 189
224 0 189
225 0 191
226 0 189
227 0 191
228 0 189
229 0 189
230 0 189
231 0 191
232 0 189
233 0 191
234 0 189
235 0 189
236 0 189
237 0 189
238 0 189
239 0 191
240 0 191
241 0 191
242 0 191
243 0 187
244 0 187
245 0 191
246 0 191
247 0 187
248 0 187
249 0 190
250 0 191
251 0 190
252 0 191
253 0 190
254 0 190
255 0 191
256 0 190
257 0 191
258 0 190
259 0 187
260 0 191
261 0 187
262 0 191
263 0 187
264 0 191
265 0 187
266 0 191
267 0 191
268 0 191
269 0 191
270 0 191
271 0 187
272 0 191
273 0 191
274 0 187
275 0 191
276 0 191
277 0 191
278 0 191
279 0 191
280 0 191
281 0 187
282 0 191
283 0 187
284 0 191
285 0 187
286 0 187
287 0 191
288 0 187
289 0 191
290 0 187
291 0 190
292 0 190
293 0 190
294 0 190
295 0 190
296 0 190
297 0 190
298 0 190
299 0 191
300 0 190
301 0 191
302 0 190
303 0 191
304 0 190
305 0 191
306 0 190
307 0 190
308 0 190
309 0 190
310 0 190
311 0 187
312 0 191
313 0 187
314 0 191
315 0 187
316 0 191
317 0 187
318 0 191
319 0 191
320 0 191
321 0 191
322 0 191
323 0 191
324 0 191
325 0 191
326 0 191
327 0 191
328 0 191
329 0 191
330 0 191
331 0 191
332 0 187
333 0 187
334 0 191
335 0 187
336 0 187
337 0 190
338 0 191
339 0 190
340 0 191
341 0 191
342 0 191
343 0 191
344 0 191
345 0 187
346 0 187
347 0 187
348 0 187
349 0 190
350 0 190
351 0 190
352 0 190
353 0 191
354 0 187
355 0 191
356 0 187
357 0 191
358 0 187
359 0 191
360 0 187
361 0 190
362 0 190
363 0 190
364 0 190
365 0 190
366 0 191
367 0 190
368 0 191
369 0 187
370 0 191
371 0 187
372 0 191
373 0 191
374 0 187
375 0 191
376 0 187
377 0 191
378 0 190
379 0 191
380 0 190
381 0 191
382 0 191
383 0 191
384 0 191
385 0 187
386 0 191
387 0 187
388 0 191
389 0 187
390 0 191
391 0 187
392 0 191
393 0 191
394 0 191
395 0 191
396 0 191
397 0 191
398 0 191
399 0 191
400 0 191
401 0 190
402 0 190
403 0 190
404 0 190
405 0 191
406 0 190
407 0 191
408 0 190
409 0 191
410 0 191
411 0 187
412 0 187
413 0 187
414 0 187
415 0 190
416 0 190
417 0 190
418 0 190
419 0 190
420 0 190
421 0 190
422 0 190
423 0 191
424 0 187
425 0 191
426 0 187
427 0 191
428 0 187
429 0 191
430 0 187
431 0 191
432 0 191
433 0 191
434 0 191
435 0 190
436 0 191
437 0 190
438 0 191
439 0 190
440 0 191
441 0 190
442 0 191
443 0 191
444 0 191
445 0 191
446 0 191
447 0 191
448 0 191
449 0 191
450 0 191
451 0 187
452 0 191
453 0 191
454 0 187
455 0 191
456 0 191
457 0 187
458 0 187
459 0 187
460 0 187
461 0 187
462 0 187
463 0 190
464 0 190
465 0 190
466 0 190
467 0 191
468 0 187
469 0 191
470 0 187
471 0 191
472 0 187
473 0 191
474 0 187
475 0 190
476 0 191
477 0 191
478 0 190
479 0 191
480 0 191

Atoms

1 1 1 0 0.262866 0.425325
2 1 1 0 0.262866 -0.425325
3 1 1 0 -0.262866 -0.425325
4 1 1 0 -0.262866 0.425325
5 1 1 0.262866 0.425325 0
6 1 1 0.262866 -0.425325 0
7 1 1 -0.262866 -0.425325 0
8 1 1 -0.262866 0.425325 0
9 1 1 0.425325 0 0.262866
10 1 1 -0.425325 0 0.262866
11 1 1 -0.425325 0 -0.262866
12 1 1 0.425325 0 -0.262866
13 1 1 -0.5 0 0
14 1 1 -0.404508 -0.25 -0.154508
15 1 1 -0.404508 -0.25 0.154508
16 1 1 -0.404508 0.25 -0.154508
17 1 1 -0.404508 0.25 0.154508
18 1 1 -0.25 -0.154508 -0.404508
19 1 1 -0.25 -0.154508 0.404508
20 1 1 -0.25 0.154508 -0.404508
21 1 1 -0.25 0.154508 0.404508
22 1 1 -0.154508 -0.404508 -0.25
23 1 1 -0.154508 -0.404508 0.25
24 1 1 -0.154508 0.404508 -0.25
25 1 1 -0.154508 0.404508 0.25
26 1 1 0 -0.5 0
27 1 1 0 0 -0.5
28 1 1 0 0 0.5
29 1 1 0 0.5 0
30 1 1 0.154508 -0.404508 -0.25
31 1 1 0.154508 -0.404508 0.25
32 1 1 0.154508 0.404508 -0.25
33 1 1 0.154508 0.404508 0.25
34 1 1 0.25 -0.154508 -0.404508
35 1 1 0.25 -0.154508 0.404508
36 1 1 0.25 0.154508 -0.404508
37 1 1 0.25 0.154508 0.404508
38 1 1 0.404508 -0.25 -0.154508
39 1 1 0.404508 -0.25 0.154508
40 1 1 0.404508 0.25 -0.154508
41 1 1 0.404508 0.25 0.154508
42 1 1 0.5 0 0
43 1 1 -0.480969 0 -0.136633
44 1 1 -0.480969 0 0.136633
45 1 1 -0.475528 -0.131433 -0.0812299
46 1 1 -0.475528 -0.131433 0.0812299
47 1 1 -0.475528 0.131433 -0.0812299
48 1 1 -0.475528 0.131433 0.0812299
49 1 1 -0.431334 -0.129946 -0.216944
50 1 1 -0.431334 -0.129946 0.216944
51 1 1 -0.431334 0.129946 -0.216944
52 1 1 -0.431334 0.129946 0.216944
53 1 1 -0.425325 -0.262866 0
54 1 1 -0.425325 0.262866 0
55 1 1 -0.351023 -0.080311 -0.34689
56 1 1 -0.351023 -0.080311 0.34689
57 1 1 -0.351023 0.080311 -0.34689
58 1 1 -0.351023 0.080311 0.34689
59 1 1 -0.34689 -0.351023 -0.080311
60 1 1 -0.34689 -0.351023 0.080311
61 1 1 -0.34689 0.351023 -0.080311
62 1 1 -0.34689 0.351023 0.080311
63 1 1 -0.344095 -0.212663 -0.293893
64 1 1 -0.344095 -0.212663 0.293893
65 1 1 -0.344095 0.212663 -0.293893
66 1 1 -0.344095 0.212663 0.293893
67 1 1 -0.293893 -0.344095 -0.212663
68 1 1 -0.293893 -0.344095 0.212663
69 1 1 -0.293893 0.344095 -0.212663
70 1 1 -0.293893 0.344095 0.212663
71 1 1 -0.262866 0 -0.425325
72 1 1 -0.262866 0 0.425325
73 1 1 -0.216944 -0.431334 -0.129946
74 1 1 -0.216944 -0.431334 0.129946
75 1 1 -0.216944 0.431334 -0.129946
76 1 1 -0.216944 0.431334 0.129946
77 1 1 -0.212663 -0.293893 -0.344095
78 1 1 -0.212663 -0.293893 0.344095
79 1 1 -0.212663 0.293893 -0.344095
80 1 1 -0.212663 0.293893 0.344095
81 1 1 -0.136633 -0.480969 0
82 1 1 -0.136633 0.480969 0
83 1 1 -0.129946 -0.216944 -0.431334
84 1 1 -0.129946 -0.216944 0.431334
85 1 1 -0.131433 -0.0812299 -0.475528
86 1 1 -0.131433 -0.0812299 0.475528
87 1 1 -0.131433 0.0812299 -0.475528
88 1 1 -0.131433 0.0812299 0.475528
89 1 1 -0.129946 0.216944 -0.431334
90 1 1 -0.129946 0.216944 0.431334
91 1 1 -0.0812299 -0.475528 -0.131433
92 1 1 -0.0812299 -0.475528 0.131433
93 1 1 -0.080311 -0.34689 -0.351023
94 1 1 -0.080311 -0.34689 0.351023
95 1 1 -0.080311 0.34689 -0.351023
96 1 1 -0.080311 0.34689 0.351023
97 1 1 -0.0812299 0.475528 -0.131433
98 1 1 -0.0812299 0.475528 0.131433
99 1 1 0 -0.425325 -0.262866
100 1 1 0 -0.425325 0.262866
101 1 1 0 -0.136633 -0.480969
102 1 1 0 -0.136633 0.480969
103 1 1 0 0.136633 -0.480969
104 1 1 0 0.136633 0.480969
105 1 1 0 0.425325 -0.262866
106 1 1 0 0.425325 0.262866
107 1 1 0.0812299 -0.475528 -0.131433
108 1 1 0.0812299 -0.475528 0.131433
109 1 1 0.080311 -0.34689 -0.351023
110 1 1 0.080311 -0.34689 0.351023
111 1 1 0.080311 0.34689 -0.351023
112 1 1 0.080311 0.34689 0.351023
113 1 1 0.0812299 0.475528 -0.131433
114 1 1 0.0812299 0.475528 0.131433
115 1 1 0.129946 -0.216944 -0.431334
116 1 1 0.129946 -0.216944 0.431334
117 1 1 0.131433 -0.0812299 -0.475528
118 1 1 0.131433 -0.0812299 0.475528
119 1 1 0.131433 0.0812299 -0.475528
120 1 1 0.131433 0.0812299 0.475528
121 1 1 0.129946 0.216944 -0.431334
122 1 1 0.129946 0.216944 0.431334
123 1 1 0.136633 -0.480969 0
124 1 1 0.136633 0.480969 0
125 1 1 0.212663 -0.293893 -0.344095
126 1 1 0.212663 -0.293893 0.344095
127 1 1 0.212663 0.293893 -0.344095
128 1 1 0.212663 0.293893 0.344095
129 1 1 0.216944 -0.431334 -0.129946
130 1 1 0.216944 -0.431334 0.129946
131 1 1 0.216944 0.431334 -0.129946
132 1 1 0.216944 0.431334 0.129946
133 1 1 0.262866 0 -0.425325
134 1 1 0.262866 0 0.425325
135 1 1 0.293893 -0.344095 -0.212663
136 1 1 0.293893 -0.344095 0.212663
137 1 1 0.293893 0.344095 -0.212663
138 1 1 0.293893 0.344095 0.212663
139 1 1 0.344095 -0.212663 -0.293893
140 1 1 0.344095 -0.212663 0.293893
141 1 1 0.344095 0.212663 -0.293893
142 1 1 0.344095 0.212663 0.293893
143 1 1 0.34689 -0.351023 -0.080311
144 1 1 0.34689 -0.351023 0.080311
145 1 1 0.34689 0.351023 -0.080311
146 1 1 0.34689 0.351023 0.080311
147 1 1 0.351023 -0.080311 -0.34689
148 1 1 0.351023 -0.080311 0.34689
149 1 1 0.351023 0.080311 -0.34689
150 1 1 0.351023 0.080311 0.34689
151 1 1 0.425325 -0.262866 0
152 1 1 0.425325 0.262866 0
153 1 1 0.431334 -0.129946 -0.216944
154 1 1 0.431334 -0.129946 0.216944
155 1 1 0.431334 0.129946 -0.216944
156 1 1 0.431334 0.129946 0.216944
157 1 1 0.475528 -0.131433 -0.0812299
158 1 1 0.475528 -0.131433 0.0812299
159 1 1 0.475528 0.131433 -0.0812299
160 1 1 0.475528 0.131433 0.0812299
161 1 1 0.480969 0 -0.136633
162 1 1 0.480969 0 0.136633
163 2 1 0 0.262866 2.42533
164 2 1 0 0.262866 1.57467
165 2 1 0 -0.262866 1.57467
166 2 1 0 -0.262866 2.42533
167 2 1 0.262866 0.425325 2
168 2 1 0.262866 -0.425325 2
169 2 1 -0.262866 -0.425325 2
170 2 1 -0.262866 0.425325 2
171 2 1 0.425325 0 2.26287
172 2 1 -0.425325 0 2.26287
173 2 1 -0.425325 0 1.73713
174 2 1 0.425325 0 1.73713
175 2 1 -0.5 0 2
176 2 1 -0.404508 -0.25 1.84549
177 2 1 -0.404508 -0.25 2.15451
178 2 1 -0.404508 0.25 1.84549
179 2 1 -0.404508 0.25 2.15451
180 2 1 -0.25 -0.154508 1.59549
181 2 1 -0.25 -0.154508 2.40451
182 2 1 -0.25 0.154508 1.59549
183 2 1 -0.25 0.154508 2.40451
184 2 1 -0.154508 -0.404508 1.75
185 2 1 -0.154508 -0.404508 2.25
186 2 1 -0.154508 0.404508 1.75
187 2 1 -0.154508 0.404508 2.25
188 2 1 0 -0.5 2
189 2 1 0 0 1.5
190 2 1 0 0 2.5
191 2 1 0 0.5 2
192 2 1 0.154508 -0.404508 1.75
193 2 1 0.154508 -0.404508 2.25
194 2 1 0.154508 0.404508 1.75
195 2 1 0.154508 0.404508 2.25
196 2 1 0.25 -0.154508 1.59549
197 2 1 0.25 -0.154508 2.40451
198 2 1 0.25 0.154508 1.59549
199 2 1 0.25 0.154508 2.40451
200 2 1 0.404508 -0.25 1.84549
201 2 1 0.404508 -0.25 2.15451
202 2 1 0.404508 0.25 1.84549
203 2 1 0.404508 0.25 2.15451
204 2 1 0.5 0 2
205 2 1 -0.480969 0 1.86337
206 2 1 -0.480969 0 2.13663
207 2 1 -0.475528 -0.131433 1.91877
208 2 1 -0.475528 -0.131433 2.08123
209 2 1 -0.475528 0.131433 1.91877
210 2 1 -0.475528 0.131433 2.08123
211 2 1 -0.431334 -0.129946 1.78306
212 2 1 -0.431334 -0.129946 2.21694
213 2 1 -0.431334 0.129946 1.78306
214 2 1 -0.431334 0.129946 2.21694
215 2 1 -0.425325 -0.262866 2
216 2 1 -0.425325 0.262866 2
217 2 1 -0.351023 -0.080311 1.65311
218 2 1 -0.351023 -0.080311 2.34689
219 2 1 -0.351023 0.080311 1.65311
220 2 1 -0.351023 0.080311 2.34689
221 2 1 -0.34689 -0.351023 1.91969
222 2 1 -0.34689 -0.351023 2.08031
223 2 1 -0.34689 0.351023 1.91969
224 2 1 -0.34689 0.351023 2.08031
225 2 1 -0.344095 -0.212663 1.70611
226 2 1 -0.344095 -0.212663 2.29389
227 2 1 -0.344095 0.212663 1.70611
228 2 1 -0.344095 0.212663 2.29389
229 2 1 -0.293893 -0.344095 1.78734
230 2 1 -0.293893 -0.344095 2.21266
231 2 1 -0.293893 0.344095 1.78734
232 2 1 -0.293893 0.344095 2.21266
233 2 1 -0.262866 0 1.57467
234 2 1 -0.262866 0 2.42533
235 2 1 -0.216944 -0.431334 1.87005
236 2 1 -0.216944 -0.431334 2.12995